8
10  0.0  0.0  0.0  10  0.0  0.0  0.0  10  currentStep 4322  lengthUnit LJ
0 5 5 5 0 0 0 
0 5 6 5 0 0 0 
1 6 5 5 0 0 0 
1 6 6 5 0 0 0 
23 4 1 2 0 0 0 
14 7 7 7 0 0 0 
6 9 9 9 0 0 0 
8 8 8 8 0 0 0 
