LAMMPS

40000 atoms
40000 bonds
40000 angles
    0 dihedrals
    0 impropers

    1 atom types
    1 bond types
    1 angle types
    0 dihedral types
    0 improper types

0.0000 36.1033 xlo xhi
0.0000 36.1033 ylo yhi
0.0000 36.1033 zlo zhi

Atoms

1 1 1 128.36900 -22.40660 44.76930
2 1 1 128.13600 -21.66770 44.27470
3 1 1 128.09500 -20.68430 44.13330
4 1 1 128.34400 -19.85080 43.70140
5 1 1 127.81400 -19.20720 43.26450
6 1 1 127.38100 -19.98210 43.45730
7 1 1 126.56700 -20.23530 43.03660
8 1 1 125.96500 -20.92700 42.70220
9 1 1 126.31500 -20.59620 41.80090
10 1 1 125.35000 -20.48710 41.69850
11 1 1 125.33000 -21.42870 41.56980
12 1 1 126.13700 -21.81500 41.41830
13 1 1 127.07000 -21.70630 41.32990
14 1 1 127.68900 -21.68900 42.04650
15 1 1 128.55300 -22.08490 41.75300
16 1 1 128.06200 -22.71880 41.19220
17 1 1 128.90000 -23.12940 40.96680
18 1 1 129.71100 -22.72840 41.24040
19 1 1 130.61800 -22.46700 41.47050
20 1 1 131.29800 -22.23000 42.07090
21 1 1 130.88300 -22.49710 42.93190
22 1 1 129.89300 -22.59280 42.70680
23 1 1 129.21800 -23.08280 42.22500
24 1 1 128.45300 -23.69720 42.25740
25 1 1 129.21500 -24.24610 42.10150
26 1 1 129.07000 -25.00960 41.49360
27 1 1 129.44300 -25.41560 40.74260
28 1 1 128.91700 -24.85300 40.14730
29 1 1 128.34600 -25.16080 40.81690
30 1 1 127.79400 -25.93600 40.68410
31 1 1 127.68000 -26.79110 40.34400
32 1 1 127.78100 -27.73610 40.08970
33 1 1 127.78800 -28.51070 40.67820
34 1 1 128.67600 -28.59780 40.96330
35 1 1 129.10300 -29.05950 40.26840
36 1 1 129.65800 -29.49300 39.60330
37 1 1 130.49700 -29.08810 39.35050
38 1 1 130.52900 -28.37500 39.91040
39 1 1 130.32400 -27.98550 39.05160
40 1 1 131.17200 -28.25480 38.73480
41 1 1 131.17200 -27.47950 39.25000
42 1 1 132.02200 -27.61000 39.66490
43 1 1 132.94000 -27.50200 39.57080
44 1 1 133.87400 -27.74690 39.72500
45 1 1 134.76500 -27.84330 39.43510
46 1 1 135.44900 -27.18400 39.48680
47 1 1 134.60900 -26.81500 39.12950
48 1 1 133.63700 -26.85340 38.81140
49 1 1 133.60000 -27.83930 38.81020
50 1 1 134.28100 -27.90500 38.17390
51 1 1 134.59300 -27.60760 37.26770
52 1 1 134.64500 -26.96950 36.55740
53 1 1 134.29200 -26.18570 37.00540
54 1 1 134.32600 -26.60070 37.86330
55 1 1 134.20300 -25.93050 38.52500
56 1 1 134.58500 -25.35380 39.14650
57 1 1 134.69200 -25.34660 40.11850
58 1 1 135.51300 -25.10770 39.72360
59 1 1 135.80100 -25.95870 39.28860
60 1 1 136.22500 -26.76280 38.90180
61 1 1 136.54300 -27.52380 39.41730
62 1 1 136.20700 -28.43340 39.82300
63 1 1 135.32300 -28.52140 40.20170
64 1 1 134.37600 -28.66830 40.26850
65 1 1 134.64500 -27.73090 40.38280
66 1 1 133.82600 -28.04170 40.77620
67 1 1 132.91800 -28.15030 41.16210
68 1 1 132.05200 -27.87380 40.82580
69 1 1 131.30300 -27.40580 40.51770
70 1 1 130.28900 -27.26420 40.49150
71 1 1 130.62800 -26.33800 40.63610
72 1 1 129.81900 -26.21120 40.12340
73 1 1 130.06100 -26.91280 39.50990
74 1 1 130.60800 -26.20030 39.27840
75 1 1 130.43400 -25.28680 39.03620
76 1 1 131.10600 -24.61930 39.22050
77 1 1 131.23900 -25.02520 38.38990
78 1 1 131.60000 -25.58800 39.04010
79 1 1 131.98600 -24.90810 39.62710
80 1 1 132.55900 -25.53970 40.01410
81 1 1 133.10100 -24.91650 40.51330
82 1 1 133.42900 -25.88560 40.41110
83 1 1 133.77900 -26.02930 39.48220
84 1 1 133.09400 -25.77000 38.85250
85 1 1 132.53500 -25.08160 38.72570
86 1 1 132.23400 -25.58430 37.98360
87 1 1 132.08000 -26.56050 37.82120
88 1 1 132.13500 -26.81820 36.87560
89 1 1 132.34200 -26.78340 35.92130
90 1 1 132.22100 -25.86890 36.23660
91 1 1 132.77400 -25.15990 36.37650
92 1 1 132.74700 -24.69870 37.25660
93 1 1 132.67900 -24.24880 38.08410
94 1 1 131.93000 -24.15080 38.77050
95 1 1 131.80300 -23.30680 39.12890
96 1 1 131.57400 -22.54310 39.74310
97 1 1 131.48100 -21.92930 39.03540
98 1 1 131.55800 -21.34660 38.31610
99 1 1 131.64900 -21.06930 37.42040
100 1 1 132.49500 -21.09380 37.87880
101 1 1 133.12400 -21.35840 38.60590
102 1 1 133.09900 -22.30660 38.60160
103 1 1 132.52400 -22.53200 37.82460
104 1 1 132.02400 -23.34700 37.91530
105 1 1 131.54100 -24.22500 37.70810
106 1 1 130.65100 -24.72560 37.58950
107 1 1 129.92300 -24.93600 37.01930
108 1 1 129.98500 -25.65710 36.44140
109 1 1 130.28500 -26.21240 35.70680
110 1 1 129.93100 -27.07380 35.81910
111 1 1 130.22200 -27.95150 36.03710
112 1 1 131.02100 -28.25800 35.66860
113 1 1 131.91000 -27.94580 35.58050
114 1 1 131.26100 -27.68540 34.84280
115 1 1 130.31300 -27.83380 34.76660
116 1 1 129.98500 -28.65350 35.22680
117 1 1 129.58500 -29.37370 35.73050
118 1 1 129.63900 -30.21170 36.15490
119 1 1 129.70700 -31.03890 35.75480
120 1 1 130.14100 -31.27090 34.94270
121 1 1 130.79700 -32.05300 34.88730
122 1 1 131.29100 -31.25910 34.70110
123 1 1 131.58900 -30.86160 33.95920
124 1 1 131.25700 -30.72440 33.06650
125 1 1 131.90600 -30.23050 32.57720
126 1 1 132.80400 -30.69000 32.67660
127 1 1 133.75900 -30.68120 32.47350
128 1 1 134.22500 -30.24060 33.19880
129 1 1 133.44100 -29.77750 33.02660
130 1 1 133.28300 -30.55160 33.55040
131 1 1 133.99800 -31.24800 33.59360
132 1 1 134.69100 -31.29950 32.80760
133 1 1 134.77400 -30.39460 32.41060
134 1 1 135.37700 -29.73880 32.63550
135 1 1 134.71000 -29.30550 33.08930
136 1 1 134.64700 -28.52360 33.59860
137 1 1 135.09700 -27.82020 33.26410
138 1 1 134.82000 -27.62250 34.14010
139 1 1 134.05100 -27.20700 34.46840
140 1 1 133.56500 -26.90990 33.69230
141 1 1 132.57600 -26.61450 33.72860
142 1 1 131.71500 -26.16450 33.95010
143 1 1 131.24300 -25.65520 33.24890
144 1 1 130.85900 -24.84120 33.50020
145 1 1 130.41900 -24.13910 33.96350
146 1 1 129.95800 -23.58020 34.66220
147 1 1 129.35100 -23.13550 35.32890
148 1 1 129.87800 -22.67860 35.98370
149 1 1 130.77100 -22.54180 36.36050
150 1 1 131.09000 -23.40760 36.34100
151 1 1 130.95500 -23.45140 37.29040
152 1 1 130.86300 -23.47990 38.22380
153 1 1 130.76200 -23.61360 39.18660
154 1 1 131.18800 -23.84370 39.99760
155 1 1 131.73800 -23.24100 40.63510
156 1 1 132.00800 -22.59200 41.30300
157 1 1 132.42500 -21.98040 41.83170
158 1 1 132.99300 -22.72240 42.05620
159 1 1 133.21700 -22.79090 41.12730
160 1 1 133.13400 -23.28180 40.25910
161 1 1 132.68500 -24.00310 39.82640
162 1 1 132.19700 -24.25190 40.65930
163 1 1 131.50500 -24.93540 40.79620
164 1 1 132.23000 -25.46500 41.22600
165 1 1 132.43900 -26.28090 40.85720
166 1 1 132.36400 -27.00260 41.51570
167 1 1 131.71600 -27.54380 42.03080
168 1 1 130.92000 -28.20380 41.94750
169 1 1 130.10700 -28.74600 41.91860
170 1 1 129.61900 -29.19600 42.62600
171 1 1 129.19900 -29.63150 41.86160
172 1 1 128.37000 -29.51670 41.35340
173 1 1 127.97800 -30.23420 40.88600
174 1 1 128.08600 -29.43380 40.32070
175 1 1 127.74500 -29.62410 39.47770
176 1 1 127.19600 -28.79300 39.75500
177 1 1 127.29200 -28.23660 38.90250
178 1 1 127.22400 -27.31680 38.64170
179 1 1 127.92900 -26.70660 38.91470
180 1 1 128.86200 -26.55080 39.12960
181 1 1 129.43700 -25.78840 39.28650
182 1 1 129.11500 -24.91390 39.11750
183 1 1 128.17500 -25.10500 39.33760
184 1 1 127.38100 -25.07140 38.78500
185 1 1 126.42600 -25.25700 38.72860
186 1 1 125.63400 -25.80620 38.80900
187 1 1 126.18400 -26.07810 38.08790
188 1 1 127.14800 -25.99720 38.09250
189 1 1 127.21400 -26.01860 39.05700
190 1 1 127.96100 -26.03220 39.65790
191 1 1 127.36400 -25.30930 39.86910
192 1 1 126.83000 -24.59440 40.28410
193 1 1 126.17300 -24.40890 40.95960
194 1 1 126.14500 -24.44030 41.90550
195 1 1 126.77200 -24.95270 42.36220
196 1 1 127.18500 -24.60640 41.49960
197 1 1 127.20200 -23.91240 42.17660
198 1 1 127.52000 -23.38790 42.93960
199 1 1 127.07000 -22.75160 43.43480
200 1 1 127.73700 -22.85310 44.17720
201 2 1 42.71500 45.53620 6.57423
202 2 1 42.70380 46.35840 6.12902
203 2 1 42.21200 46.29770 5.34546
204 2 1 42.08360 46.20110 4.43900
205 2 1 41.74410 45.50130 3.81420
206 2 1 42.20290 44.92470 4.42467
207 2 1 42.64030 44.35600 3.77838
208 2 1 42.72880 43.43750 3.53107
209 2 1 43.35830 42.66950 3.43215
210 2 1 43.93450 43.37850 3.74641
211 2 1 44.35890 43.65580 4.49603
212 2 1 43.35610 43.84780 4.39941
213 2 1 43.67200 44.76520 4.28418
214 2 1 43.07440 45.50030 4.38175
215 2 1 43.20070 46.44840 4.45084
216 2 1 44.06230 46.84040 4.37534
217 2 1 44.65550 46.88480 3.55849
218 2 1 44.96200 45.99990 3.60992
219 2 1 45.48720 45.23860 3.21765
220 2 1 44.87700 44.84910 2.60098
221 2 1 45.68630 44.82610 1.95344
222 2 1 46.62120 44.83730 2.18703
223 2 1 47.15960 44.60390 2.94874
224 2 1 48.04300 44.87310 2.91017
225 2 1 48.73050 45.52830 2.70724
226 2 1 49.23960 45.71130 1.87672
227 2 1 49.56930 46.38000 1.25544
228 2 1 50.37320 46.20350 0.77295
229 2 1 50.33720 46.63070 -0.07393
230 2 1 50.11720 47.29600 -0.80339
231 2 1 50.19830 48.35970 -0.83405
232 2 1 49.98380 48.07220 -1.70615
233 2 1 50.37410 47.52690 -2.49858
234 2 1 50.51070 46.95940 -3.20881
235 2 1 49.70840 46.53590 -3.59299
236 2 1 49.35010 45.73620 -3.92928
237 2 1 48.40580 45.76760 -3.69826
238 2 1 47.65250 46.25370 -4.01164
239 2 1 47.96680 46.67650 -3.13589
240 2 1 48.59180 47.02290 -3.69615
241 2 1 49.21140 46.90620 -4.49525
242 2 1 49.50930 46.64470 -5.38736
243 2 1 48.96980 47.39820 -5.59752
244 2 1 49.61780 47.80810 -4.96074
245 2 1 50.11310 47.39990 -4.25972
246 2 1 50.58050 48.08260 -4.82054
247 2 1 50.88260 48.82100 -4.35293
248 2 1 51.71020 48.34760 -3.87894
249 2 1 50.92930 47.81410 -3.69383
250 2 1 50.11910 48.28040 -3.66399
251 2 1 49.25410 47.87110 -3.79308
252 2 1 48.71370 48.47960 -4.36617
253 2 1 47.88430 48.88300 -4.76341
254 2 1 47.69770 48.67840 -3.83554
255 2 1 47.64480 48.64080 -2.86591
256 2 1 48.11230 49.02180 -2.13685
257 2 1 48.56530 49.84260 -1.74661
258 2 1 49.19910 50.17760 -1.09267
259 2 1 48.99080 50.47790 -0.26205
260 2 1 48.56580 50.35960 0.56128
261 2 1 49.41100 50.81620 0.59719
262 2 1 49.50920 51.48320 -0.11268
263 2 1 49.07190 51.33180 -0.88772
264 2 1 48.61910 50.89380 -1.60159
265 2 1 48.29630 51.64290 -2.00325
266 2 1 48.60730 52.56310 -2.06311
267 2 1 49.50070 52.37040 -2.32829
268 2 1 50.16160 52.73420 -2.94612
269 2 1 50.42170 52.40980 -3.81089
270 2 1 51.27690 52.85010 -3.61944
271 2 1 51.43200 53.02550 -4.56243
272 2 1 51.64310 52.40950 -5.30303
273 2 1 51.41750 51.49160 -5.41200
274 2 1 51.55800 50.51860 -5.26721
275 2 1 51.95600 50.50820 -4.35077
276 2 1 51.75740 50.50610 -3.44023
277 2 1 52.31880 51.22890 -3.19085
278 2 1 51.87870 52.14860 -3.11327
279 2 1 50.93420 51.97980 -2.99743
280 2 1 50.26100 51.54440 -2.48531
281 2 1 49.56460 51.42060 -1.94363
282 2 1 50.00240 50.82050 -1.32897
283 2 1 50.50340 50.44010 -2.02098
284 2 1 49.74950 50.00460 -2.34790
285 2 1 49.75990 49.30900 -3.01541
286 2 1 49.13620 48.61530 -2.96780
287 2 1 49.30810 47.73760 -2.57863
288 2 1 48.84100 46.89800 -2.69774
289 2 1 48.31480 47.67470 -2.92006
290 2 1 48.36760 47.97440 -1.99653
291 2 1 48.87600 48.67420 -1.61455
292 2 1 48.79690 49.26060 -0.81320
293 2 1 48.22860 49.78030 -0.23805
294 2 1 48.18780 50.49380 -0.84708
295 2 1 47.54940 50.69200 -1.64976
296 2 1 47.39200 49.84030 -1.40703
297 2 1 47.76750 49.07440 -1.02438
298 2 1 47.93230 48.12650 -0.98366
299 2 1 47.70070 47.26830 -1.19677
300 2 1 47.05470 46.75310 -0.72022
301 2 1 47.46610 45.82390 -0.64886
302 2 1 47.15060 45.37030 0.09048
303 2 1 47.31940 44.42200 0.08588
304 2 1 47.34580 43.56450 0.50943
305 2 1 46.92840 43.05660 1.16708
306 2 1 47.28410 42.34470 1.63934
307 2 1 47.84320 41.91750 2.31249
308 2 1 47.80010 41.04480 2.70751
309 2 1 47.16700 41.28130 3.41014
310 2 1 46.46030 41.79560 3.82195
311 2 1 45.96560 41.62890 2.97298
312 2 1 45.23650 41.87950 3.58251
313 2 1 45.07860 41.64170 4.49585
314 2 1 45.03770 41.97370 5.34510
315 2 1 45.83730 42.24400 4.91760
316 2 1 45.78830 43.01030 4.27459
317 2 1 44.93660 42.90450 4.00643
318 2 1 44.34960 42.14210 3.98183
319 2 1 44.04750 41.24220 4.27983
320 2 1 43.90140 40.30010 4.31554
321 2 1 44.72200 39.88680 4.54604
322 2 1 44.49530 39.03990 4.95416
323 2 1 45.33490 39.06420 5.36419
324 2 1 46.01580 39.74250 5.30916
325 2 1 46.74050 39.52100 5.87526
326 2 1 46.29680 38.76070 5.45951
327 2 1 45.80710 38.30520 4.71445
328 2 1 46.60380 37.80190 4.84635
329 2 1 46.56470 36.84960 4.84397
330 2 1 45.88380 36.70410 5.44168
331 2 1 45.42630 37.08580 4.65785
332 2 1 45.39380 36.96830 3.68655
333 2 1 45.68660 36.19030 3.21348
334 2 1 45.73290 36.03560 2.29628
335 2 1 45.26930 36.11880 1.39154
336 2 1 45.76470 36.37170 0.61387
337 2 1 45.51260 37.15720 0.19190
338 2 1 44.66250 36.86700 0.41816
339 2 1 43.87420 36.64760 0.88806
340 2 1 44.63860 36.91270 1.43947
341 2 1 44.28790 36.61690 2.31559
342 2 1 44.33710 36.00640 3.06936
343 2 1 44.82650 35.45460 3.66998
344 2 1 44.17320 36.06570 4.12821
345 2 1 43.63280 36.61740 3.53306
346 2 1 43.21960 37.17070 4.12708
347 2 1 42.53010 36.91350 3.44011
348 2 1 41.65060 36.81500 3.03833
349 2 1 41.39650 37.13150 2.13247
350 2 1 42.24880 37.48660 1.79730
351 2 1 42.82410 37.32920 2.56152
352 2 1 43.61780 37.51850 3.12429
353 2 1 44.41680 37.88730 3.40307
354 2 1 44.28150 37.22410 4.10472
355 2 1 44.88030 37.94540 4.55212
356 2 1 44.42850 38.10840 5.41253
357 2 1 43.70960 38.48530 5.88054
358 2 1 44.54890 38.93460 6.03075
359 2 1 44.64700 38.43230 6.81779
360 2 1 43.71160 38.32710 6.90157
361 2 1 42.78970 38.55150 6.74126
362 2 1 41.91280 38.89530 6.58611
363 2 1 41.84660 39.81220 6.39078
364 2 1 41.02470 40.20560 5.97129
365 2 1 40.38470 39.79250 6.56030
366 2 1 39.81390 39.55570 7.36742
367 2 1 38.85820 39.49330 7.21078
368 2 1 38.49700 40.09640 6.48345
369 2 1 39.20960 40.52630 7.04205
370 2 1 39.70320 41.39200 6.92601
371 2 1 40.41060 40.79890 6.73354
372 2 1 41.00350 41.58380 7.02903
373 2 1 41.91990 41.52990 7.33688
374 2 1 41.89240 40.98870 6.56563
375 2 1 42.28560 40.59400 5.82491
376 2 1 42.61230 40.62280 4.97303
377 2 1 42.33320 41.51160 5.19182
378 2 1 43.13520 41.67500 4.72917
379 2 1 43.83990 42.25010 5.09409
380 2 1 43.53100 43.15170 5.24620
381 2 1 43.70500 44.09270 5.34923
382 2 1 42.88350 44.45680 5.17940
383 2 1 41.98750 44.37680 5.46464
384 2 1 41.30490 44.26420 4.73746
385 2 1 42.12790 43.89170 4.56330
386 2 1 41.58580 43.60650 3.80146
387 2 1 41.45260 43.24450 2.92355
388 2 1 42.05830 43.72540 2.39388
389 2 1 42.69690 44.01840 1.76015
390 2 1 43.24340 43.31330 1.35242
391 2 1 44.11440 43.28310 0.93566
392 2 1 44.08640 44.10270 1.36410
393 2 1 44.06320 44.62770 2.13180
394 2 1 43.71320 45.46350 2.20178
395 2 1 44.23000 45.61480 3.00104
396 2 1 44.02810 45.65940 3.92841
397 2 1 44.05980 45.87480 4.88877
398 2 1 43.33380 45.66200 5.46471
399 2 1 42.45580 45.31460 5.64575
400 2 1 41.75660 45.45640 6.22882
401 3 1 10.10160 -32.90810 50.27390
402 3 1 9.18372 -32.93210 50.58790
403 3 1 8.26262 -33.14920 50.55860
404 3 1 7.57385 -33.19340 51.26170
405 3 1 8.33850 -32.67280 51.51980
406 3 1 8.85088 -32.48630 52.26480
407 3 1 8.89984 -33.42020 52.03030
408 3 1 8.66884 -34.39010 52.19190
409 3 1 9.27727 -34.72520 51.43930
410 3 1 9.16850 -35.32720 50.67080
411 3 1 9.16442 -36.28120 50.80970
412 3 1 9.40799 -36.71240 50.03320
413 3 1 8.57988 -36.50470 49.62700
414 3 1 8.29315 -35.69920 49.28420
415 3 1 9.24505 -35.68510 49.65630
416 3 1 9.95385 -35.05310 49.74420
417 3 1 10.73950 -34.83620 49.31000
418 3 1 11.26570 -34.23000 48.79270
419 3 1 11.55440 -33.35020 48.85250
420 3 1 11.71500 -32.42260 48.68810
421 3 1 10.82250 -32.37270 48.40130
422 3 1 9.89931 -32.33640 48.65020
423 3 1 9.33404 -31.81310 48.11370
424 3 1 8.42368 -31.56260 47.99740
425 3 1 8.40579 -31.55110 47.07150
426 3 1 7.56301 -31.73920 46.68710
427 3 1 6.86009 -31.74760 46.08860
428 3 1 6.08590 -31.20590 46.03170
429 3 1 5.26395 -30.82650 45.56490
430 3 1 5.52943 -29.90550 45.64910
431 3 1 5.51134 -29.46720 44.81760
432 3 1 5.19851 -28.96860 44.07170
433 3 1 5.40584 -28.24860 43.49350
434 3 1 4.55081 -27.88570 43.46800
435 3 1 3.61733 -28.17090 43.79390
436 3 1 3.34166 -28.99930 44.20530
437 3 1 2.79077 -29.18630 45.00860
438 3 1 2.96975 -29.34680 45.99040
439 3 1 3.84968 -29.67630 46.17620
440 3 1 4.54417 -30.35230 46.32450
441 3 1 4.53929 -30.21740 45.36400
442 3 1 3.61882 -29.93870 45.01770
443 3 1 2.81798 -30.24290 45.43330
444 3 1 2.10981 -30.55180 46.01930
445 3 1 1.95368 -29.63650 46.22030
446 3 1 1.17910 -29.75520 45.73130
447 3 1 0.28096 -29.85690 45.43670
448 3 1 -0.37225 -30.58810 45.51740
449 3 1 -1.31891 -30.38310 45.64730
450 3 1 -1.89690 -30.88760 45.04210
451 3 1 -1.88771 -31.36170 44.23210
452 3 1 -1.94520 -31.18540 43.27380
453 3 1 -1.38156 -31.74180 42.80440
454 3 1 -0.46000 -31.51550 42.82190
455 3 1 -0.45291 -30.98460 43.56520
456 3 1 -1.18690 -30.47650 43.09860
457 3 1 -1.84863 -30.07410 42.50720
458 3 1 -1.14000 -29.42540 42.59970
459 3 1 -0.64904 -30.05720 41.97030
460 3 1 -0.66338 -31.02320 41.66900
461 3 1 -1.60097 -31.03360 41.91710
462 3 1 -2.52802 -31.03910 42.19070
463 3 1 -3.03756 -31.30060 41.46840
464 3 1 -3.89131 -31.40060 41.81590
465 3 1 -3.56832 -31.50000 42.75410
466 3 1 -3.17074 -32.02610 43.46080
467 3 1 -2.78489 -31.90510 44.35030
468 3 1 -2.76618 -31.50610 45.16860
469 3 1 -2.63104 -31.38330 46.11330
470 3 1 -2.84050 -31.68360 47.02770
471 3 1 -1.95795 -31.95140 47.33050
472 3 1 -1.06704 -31.88480 47.64600
473 3 1 -1.68283 -31.96810 48.38210
474 3 1 -1.20330 -31.38360 49.14680
475 3 1 -0.78763 -32.31340 49.09190
476 3 1 -0.50141 -32.65920 48.22960
477 3 1 -0.73582 -33.04810 47.39420
478 3 1 -1.61419 -33.05800 47.02550
479 3 1 -1.57023 -33.91030 46.69250
480 3 1 -0.95016 -34.35040 46.01770
481 3 1 -0.19062 -34.97450 46.22870
482 3 1 -0.53662 -35.85330 46.42370
483 3 1 -1.41935 -35.98200 46.20510
484 3 1 -1.26622 -36.20760 45.21110
485 3 1 -0.34603 -36.01900 45.45400
486 3 1 0.45108 -35.42920 45.55650
487 3 1 0.70168 -36.33170 45.88360
488 3 1 1.23562 -36.16070 45.14950
489 3 1 1.96637 -36.12820 45.77590
490 3 1 2.01628 -36.51730 46.68860
491 3 1 2.05390 -36.77630 47.62220
492 3 1 2.80860 -37.03750 47.08240
493 3 1 2.77094 -37.88310 46.73200
494 3 1 3.12257 -38.38860 46.02200
495 3 1 3.93318 -38.84790 46.12000
496 3 1 4.75965 -39.36800 46.06540
497 3 1 5.17270 -38.95480 45.22790
498 3 1 5.67949 -38.49070 44.56340
499 3 1 5.55535 -38.02310 43.75460
500 3 1 5.33625 -37.09350 43.74780
501 3 1 5.29815 -36.87320 44.68560
502 3 1 4.87471 -37.54950 45.14240
503 3 1 4.64092 -38.21630 45.73700
504 3 1 4.02737 -37.48610 45.64030
505 3 1 3.92909 -38.07930 44.85760
506 3 1 4.10438 -38.91060 44.50220
507 3 1 4.19615 -39.82880 45.03490
508 3 1 3.40968 -40.15950 44.55730
509 3 1 2.96958 -40.63400 45.28020
510 3 1 2.16281 -40.98170 45.42220
511 3 1 1.72276 -41.16830 46.26460
512 3 1 2.05341 -40.25630 46.27960
513 3 1 2.39188 -39.57130 45.56670
514 3 1 2.94050 -38.92420 45.09000
515 3 1 2.54528 -38.10340 45.24850
516 3 1 2.26604 -37.35820 44.71370
517 3 1 1.99667 -36.43880 44.54020
518 3 1 2.90079 -36.19090 44.75700
519 3 1 3.13281 -37.00520 45.06050
520 3 1 3.17975 -37.55130 44.26220
521 3 1 4.00908 -37.23190 43.95460
522 3 1 4.10144 -36.83430 44.77100
523 3 1 4.43066 -36.39370 45.54830
524 3 1 5.07432 -35.70190 45.26120
525 3 1 4.83403 -35.07200 45.99020
526 3 1 4.02837 -35.14890 46.46750
527 3 1 3.17859 -34.92130 46.83120
528 3 1 2.75116 -34.13470 46.60410
529 3 1 2.07510 -33.56980 46.94580
530 3 1 1.48703 -33.71090 47.69830
531 3 1 2.05174 -33.76460 48.48220
532 3 1 1.97611 -33.32340 49.32100
533 3 1 1.21684 -32.98970 49.73650
534 3 1 1.66079 -33.65870 50.28720
535 3 1 1.95165 -33.98130 51.13350
536 3 1 2.75323 -34.08430 51.73390
537 3 1 3.31847 -34.62210 52.30800
538 3 1 4.26426 -34.44360 52.19100
539 3 1 5.05522 -34.87230 52.53730
540 3 1 5.78209 -34.27160 52.30810
541 3 1 6.67671 -34.01310 52.10050
542 3 1 7.50913 -34.46660 52.12490
543 3 1 7.42881 -35.04970 51.25550
544 3 1 8.02024 -35.36600 50.50520
545 3 1 8.14545 -34.65870 49.86180
546 3 1 8.25644 -34.70100 48.88080
547 3 1 8.06329 -34.20800 48.07770
548 3 1 7.95550 -33.52760 47.42310
549 3 1 7.53163 -32.90420 46.74050
550 3 1 6.71415 -32.57980 46.97680
551 3 1 5.86465 -32.11570 46.89440
552 3 1 5.46392 -32.23430 46.06160
553 3 1 5.16779 -32.86330 45.41600
554 3 1 4.58315 -32.42940 44.79650
555 3 1 4.61115 -32.31730 43.87180
556 3 1 5.00858 -31.59560 44.36830
557 3 1 5.57779 -31.84040 45.13130
558 3 1 6.48694 -32.23660 45.29800
559 3 1 7.23653 -32.69940 45.67480
560 3 1 8.06889 -33.20530 45.64430
561 3 1 7.64463 -33.49040 44.87730
562 3 1 7.52477 -33.24410 43.99920
563 3 1 6.57715 -33.19980 43.95920
564 3 1 6.91446 -32.59390 43.27070
565 3 1 6.89249 -32.32080 42.34270
566 3 1 6.96478 -31.61020 42.97570
567 3 1 7.17981 -31.03500 43.70540
568 3 1 8.04196 -31.01440 44.14570
569 3 1 8.01570 -30.54460 44.95050
570 3 1 8.08692 -30.76240 45.89450
571 3 1 7.78088 -31.62530 45.53100
572 3 1 7.24123 -31.59950 44.76370
573 3 1 6.73286 -32.13370 44.15640
574 3 1 5.92280 -31.97190 43.63850
575 3 1 6.08129 -31.33210 44.31590
576 3 1 5.67762 -30.56630 44.67270
577 3 1 4.72336 -30.67440 44.25950
578 3 1 5.18266 -29.97280 43.89000
579 3 1 4.30958 -29.60780 44.14750
580 3 1 3.60666 -29.90920 43.50180
581 3 1 3.76138 -29.03000 43.09160
582 3 1 4.71607 -29.23090 43.14730
583 3 1 5.64581 -29.41020 43.13120
584 3 1 6.48660 -29.84870 43.11680
585 3 1 7.40087 -30.09260 43.23730
586 3 1 8.19113 -30.58170 43.03150
587 3 1 8.62223 -31.25460 42.47250
588 3 1 8.07088 -32.03560 42.40650
589 3 1 8.15028 -31.78430 43.31490
590 3 1 7.81331 -32.18230 44.04280
591 3 1 8.46329 -32.61320 44.54640
592 3 1 9.23033 -33.17000 44.72290
593 3 1 9.23246 -32.92930 45.70940
594 3 1 8.73218 -32.48650 46.37340
595 3 1 8.35433 -32.56670 47.27980
596 3 1 8.66354 -33.05340 47.98630
597 3 1 8.35240 -33.23670 48.92820
598 3 1 8.37888 -32.28410 48.68420
599 3 1 8.82824 -32.19500 49.54270
600 3 1 9.70720 -32.15010 49.89200
601 4 1 -32.74670 9.76499 -22.49290
602 4 1 -32.91720 8.87004 -22.84090
603 4 1 -33.66370 8.31539 -22.67920
604 4 1 -34.44740 7.77232 -22.64950
605 4 1 -35.33200 7.83632 -22.26770
606 4 1 -35.52270 7.97170 -21.31650
607 4 1 -35.20800 8.49358 -20.63390
608 4 1 -35.58680 9.05648 -19.90940
609 4 1 -35.76720 9.95714 -19.54520
610 4 1 -35.71340 10.95000 -19.47040
611 4 1 -35.24690 10.73950 -20.25790
612 4 1 -34.80810 11.13800 -20.95960
613 4 1 -34.70490 11.35490 -21.93340
614 4 1 -35.39020 12.07120 -21.70520
615 4 1 -35.25790 12.40710 -22.63790
616 4 1 -34.71180 12.43190 -23.40370
617 4 1 -34.42120 13.26760 -23.79290
618 4 1 -34.35890 14.04010 -23.16180
619 4 1 -34.11400 14.76150 -22.60280
620 4 1 -35.09400 14.64840 -22.74530
621 4 1 -35.95120 14.30930 -23.00320
622 4 1 -36.28130 13.62400 -23.54190
623 4 1 -36.03970 12.75060 -23.87410
624 4 1 -35.32360 12.96660 -24.43820
625 4 1 -34.76260 13.05490 -25.15950
626 4 1 -34.56790 13.43590 -26.05910
627 4 1 -34.76690 14.05840 -26.78040
628 4 1 -35.17830 14.18260 -27.66140
629 4 1 -35.00010 15.08420 -27.93770
630 4 1 -34.09580 15.09680 -27.93070
631 4 1 -33.95280 14.55060 -27.12910
632 4 1 -33.98730 14.47730 -26.16080
633 4 1 -34.36390 14.18020 -25.38530
634 4 1 -35.17830 13.89830 -24.88320
635 4 1 -35.32840 13.85390 -23.87430
636 4 1 -35.31470 13.44810 -22.87490
637 4 1 -34.67770 13.72660 -22.22440
638 4 1 -34.29300 12.89650 -21.97630
639 4 1 -34.90740 12.85220 -21.28090
640 4 1 -34.97510 13.82180 -21.27040
641 4 1 -34.73450 14.68090 -21.77760
642 4 1 -34.41830 15.54620 -21.45320
643 4 1 -34.74840 16.32710 -21.01460
644 4 1 -34.97360 16.45700 -20.08500
645 4 1 -35.39070 17.31210 -20.43710
646 4 1 -35.42610 18.20280 -20.66240
647 4 1 -35.01080 18.88390 -20.21190
648 4 1 -35.26540 19.45420 -19.43880
649 4 1 -35.55240 20.32300 -19.71530
650 4 1 -36.13810 20.62530 -20.41110
651 4 1 -35.94030 19.76030 -20.77210
652 4 1 -35.22000 19.15930 -21.13190
653 4 1 -34.42680 18.54620 -21.21050
654 4 1 -34.43640 17.65100 -20.88460
655 4 1 -35.04820 17.27270 -21.55140
656 4 1 -34.94410 16.96680 -22.43770
657 4 1 -35.16290 16.21730 -22.99870
658 4 1 -35.70480 15.46430 -23.20980
659 4 1 -36.52730 16.00230 -22.96340
660 4 1 -36.00280 16.81290 -22.95980
661 4 1 -35.87710 17.55280 -22.32290
662 4 1 -36.54630 18.31990 -22.54050
663 4 1 -36.34230 18.31510 -21.58650
664 4 1 -36.53050 18.96310 -20.83500
665 4 1 -36.04000 19.05530 -19.92480
666 4 1 -36.42160 18.24360 -19.63420
667 4 1 -35.48530 18.31670 -19.53440
668 4 1 -34.71020 17.79940 -19.69600
669 4 1 -33.76820 17.73660 -19.75400
670 4 1 -33.79850 16.82880 -20.03920
671 4 1 -33.76620 16.22320 -20.74690
672 4 1 -33.42230 15.85950 -21.55760
673 4 1 -33.29590 15.24990 -22.29150
674 4 1 -33.07750 14.35640 -22.07750
675 4 1 -33.39700 13.49880 -22.14620
676 4 1 -33.84020 12.89580 -22.81680
677 4 1 -34.16020 12.01010 -22.72810
678 4 1 -33.50370 11.34810 -22.77720
679 4 1 -33.41190 10.61850 -22.13820
680 4 1 -34.17130 10.06820 -22.29670
681 4 1 -35.06950 10.39240 -22.06070
682 4 1 -35.68570 11.07100 -21.74560
683 4 1 -36.20110 10.53760 -22.50340
684 4 1 -36.80320 10.52330 -23.21230
685 4 1 -37.13030 11.28030 -23.71940
686 4 1 -37.11420 12.27720 -23.66650
687 4 1 -37.14120 13.18980 -23.89180
688 4 1 -37.32360 13.74190 -24.62050
689 4 1 -38.18330 13.66260 -24.98140
690 4 1 -37.54740 14.12080 -25.53750
691 4 1 -37.07000 14.60010 -26.21250
692 4 1 -36.50160 15.03610 -26.81530
693 4 1 -35.66430 14.53830 -26.65440
694 4 1 -35.62490 14.54240 -25.72320
695 4 1 -36.24820 13.86930 -25.75010
696 4 1 -35.84910 13.07030 -25.41870
697 4 1 -36.62930 12.89930 -24.98710
698 4 1 -36.82440 12.21830 -25.67020
699 4 1 -37.67880 11.88990 -26.07370
700 4 1 -37.43980 11.34250 -25.33530
701 4 1 -36.58660 11.35570 -24.91380
702 4 1 -35.90110 10.71010 -24.44980
703 4 1 -35.63790 10.34660 -23.55170
704 4 1 -35.99890 9.53419 -23.15760
705 4 1 -36.53110 9.33986 -22.40030
706 4 1 -35.90090 9.80754 -21.85290
707 4 1 -35.35920 9.98277 -21.04810
708 4 1 -36.32060 10.06160 -20.83460
709 4 1 -36.10900 9.14483 -20.95480
710 4 1 -36.61580 8.72397 -20.27350
711 4 1 -36.32450 8.58007 -19.41070
712 4 1 -36.65820 8.94901 -18.53880
713 4 1 -36.84250 8.28026 -17.82110
714 4 1 -37.34220 7.92929 -17.11030
715 4 1 -38.25720 7.81413 -17.01940
716 4 1 -38.98140 7.38330 -16.66960
717 4 1 -38.58230 7.88106 -16.01310
718 4 1 -37.95680 8.08420 -15.30840
719 4 1 -37.24060 8.65309 -15.03270
720 4 1 -36.42720 9.10726 -15.23590
721 4 1 -37.11950 9.67409 -15.54640
722 4 1 -37.18610 9.98367 -16.43770
723 4 1 -37.89520 9.70687 -16.98800
724 4 1 -37.40530 8.95411 -17.32670
725 4 1 -36.94740 8.78420 -16.54610
726 4 1 -36.13310 8.51885 -16.13540
727 4 1 -35.78630 8.07224 -17.00140
728 4 1 -36.26850 7.09027 -16.89320
729 4 1 -36.12680 7.40026 -17.75370
730 4 1 -36.28790 7.83581 -18.59260
731 4 1 -37.10920 8.11996 -19.00310
732 4 1 -38.07450 8.19407 -19.35490
733 4 1 -38.52520 9.00422 -19.60220
734 4 1 -39.05980 9.70728 -19.92120
735 4 1 -39.15960 10.49280 -20.48910
736 4 1 -38.84820 10.74410 -21.29830
737 4 1 -38.95180 11.54120 -21.76760
738 4 1 -39.20750 12.15380 -22.46940
739 4 1 -38.85870 11.42210 -22.94720
740 4 1 -39.26530 10.77530 -22.37300
741 4 1 -40.14520 10.42160 -22.01210
742 4 1 -40.12560 10.40810 -21.03370
743 4 1 -39.42820 9.79417 -21.38760
744 4 1 -39.53290 9.56695 -22.29750
745 4 1 -39.75460 9.90675 -23.19370
746 4 1 -39.56470 8.97132 -23.23760
747 4 1 -38.76440 9.34551 -22.99250
748 4 1 -38.59250 9.92366 -22.28390
749 4 1 -38.41300 9.69052 -21.40670
750 4 1 -38.35590 8.96936 -20.86960
751 4 1 -37.70040 9.11164 -20.20600
752 4 1 -37.24260 9.57634 -20.88630
753 4 1 -36.83250 9.99087 -21.71060
754 4 1 -36.69840 10.89720 -21.69070
755 4 1 -36.46060 11.59810 -22.43580
756 4 1 -37.22050 12.15480 -22.44250
757 4 1 -37.70630 11.38720 -22.63060
758 4 1 -37.55310 10.55870 -22.23170
759 4 1 -37.77880 10.09270 -23.06860
760 4 1 -37.56390 9.37215 -22.49350
761 4 1 -37.36170 8.64817 -21.96550
762 4 1 -37.12630 8.52283 -22.88390
763 4 1 -36.94670 7.70921 -23.43750
764 4 1 -37.27680 7.54323 -22.53650
765 4 1 -37.51800 7.20010 -21.72070
766 4 1 -37.61760 6.93838 -20.79910
767 4 1 -37.95600 6.16186 -20.35000
768 4 1 -38.61180 5.54080 -20.58200
769 4 1 -39.24110 5.53731 -21.37350
770 4 1 -39.31080 5.31815 -22.35670
771 4 1 -39.65190 4.62497 -21.74220
772 4 1 -39.44460 4.47769 -20.82170
773 4 1 -39.05420 4.77887 -19.99690
774 4 1 -39.61480 5.55765 -20.19800
775 4 1 -40.40730 6.09367 -20.10290
776 4 1 -39.84220 6.47957 -20.78680
777 4 1 -39.44150 7.34498 -20.82670
778 4 1 -38.79240 7.01003 -21.38160
779 4 1 -38.37610 7.74490 -20.88050
780 4 1 -37.60100 8.23840 -21.10630
781 4 1 -36.70100 8.19127 -21.29430
782 4 1 -36.12930 8.51603 -21.95140
783 4 1 -35.88500 8.38344 -22.94500
784 4 1 -36.27010 8.53843 -23.80580
785 4 1 -35.35530 8.28368 -24.03470
786 4 1 -35.17160 8.66646 -24.86860
787 4 1 -34.72890 9.47039 -25.15290
788 4 1 -33.83760 9.40864 -25.59450
789 4 1 -33.04030 9.25697 -25.04600
790 4 1 -32.59690 9.99321 -24.67630
791 4 1 -33.51940 10.22370 -24.26990
792 4 1 -34.07500 10.91980 -24.47560
793 4 1 -34.87010 11.36310 -24.12620
794 4 1 -35.70660 11.79310 -24.23050
795 4 1 -36.12910 11.37030 -23.42520
796 4 1 -35.35820 11.35270 -22.85250
797 4 1 -34.68790 10.68660 -22.99250
798 4 1 -34.58090 9.80611 -23.25610
799 4 1 -33.76240 9.22704 -23.27890
800 4 1 -33.21250 10.04330 -23.23720
801 5 1 48.52080 -89.70260 -4.66364
802 5 1 48.44600 -89.17260 -3.86275
803 5 1 48.78520 -88.53240 -3.25614
804 5 1 49.00030 -87.73080 -2.72856
805 5 1 49.63970 -87.17500 -3.13686
806 5 1 50.36850 -86.57550 -3.28013
807 5 1 50.89190 -86.36950 -2.52611
808 5 1 51.63910 -86.46050 -1.88284
809 5 1 52.11600 -87.16150 -1.48732
810 5 1 52.43500 -87.92560 -1.01692
811 5 1 51.49900 -88.29670 -0.77636
812 5 1 50.84240 -88.62570 -0.18234
813 5 1 50.45440 -88.27340 0.56454
814 5 1 49.53990 -88.56120 0.21687
815 5 1 49.44570 -89.25540 0.88879
816 5 1 50.33900 -89.03800 1.28984
817 5 1 50.53930 -88.16540 1.71420
818 5 1 50.51870 -87.25100 2.07696
819 5 1 50.87560 -86.44350 1.58123
820 5 1 50.91310 -86.19150 0.63917
821 5 1 50.22620 -86.70460 0.17907
822 5 1 50.06530 -87.58750 -0.09581
823 5 1 49.31590 -87.08620 -0.36648
824 5 1 49.92420 -86.81380 -1.07636
825 5 1 50.01770 -86.98350 -1.98063
826 5 1 50.00370 -87.91730 -2.32403
827 5 1 50.27940 -88.83420 -2.34389
828 5 1 49.70270 -89.56530 -2.15916
829 5 1 49.83720 -90.33000 -1.66492
830 5 1 49.74120 -90.73940 -0.75055
831 5 1 50.56600 -90.71450 -0.23287
832 5 1 50.77680 -91.55050 0.25748
833 5 1 51.65340 -91.89170 0.56896
834 5 1 51.63120 -92.54980 1.34138