LAMMPS

32000 atoms
    0 bonds
    0 angles
    0 dihedrals
    0 impropers

    1 atom types
    0 bond types
    0 angle types
    0 dihedral types
    0 improper types

0.0000 33.5919 xlo xhi
0.0000 33.5919 ylo yhi
0.0000 33.5919 zlo zhi

Atoms

1 1 0.547 0.589 0.529
2 1 0.468 0.421 1.657
3 1 0.611 0.629 2.621
4 1 0.577 0.538 3.666
5 1 0.515 0.573 4.650
6 1 0.424 0.588 5.791
7 1 0.607 0.625 6.750
8 1 0.435 0.561 7.771
9 1 0.552 0.476 9.025
10 1 0.441 0.581 10.075
11 1 0.517 0.613 10.955
12 1 0.622 0.551 12.054
13 1 0.593 0.601 13.065
14 1 0.556 0.585 14.122
15 1 0.425 0.519 15.150
16 1 0.506 0.521 16.369
17 1 0.447 0.465 17.243
18 1 0.546 0.589 18.328
19 1 0.552 0.529 19.330
20 1 0.572 0.588 20.555
21 1 0.430 0.457 21.619
22 1 0.558 0.629 22.615
23 1 0.519 0.483 23.614
24 1 0.582 0.527 24.749
25 1 0.431 0.465 25.716
26 1 0.448 0.484 26.872
27 1 0.530 0.528 27.882
28 1 0.486 0.567 28.786
29 1 0.483 0.585 29.824
30 1 0.582 0.522 31.032
31 1 0.448 0.516 32.084
32 1 0.609 0.520 32.972
33 1 0.528 1.504 0.458
34 1 0.495 1.537 1.551
35 1 0.457 1.647 2.668
36 1 0.546 1.641 3.704
37 1 0.452 1.641 4.687
38 1 0.462 1.473 5.689
39 1 0.453 1.593 6.756
40 1 0.473 1.526 7.857
41 1 0.612 1.569 8.857
42 1 0.447 1.578 9.966
43 1 0.469 1.495 11.020
44 1 0.587 1.549 12.032
45 1 0.459 1.638 13.186
46 1 0.424 1.651 14.103
47 1 0.567 1.529 15.317
48 1 0.504 1.515 16.361
49 1 0.609 1.627 17.420
50 1 0.490 1.615 18.342
51 1 0.591 1.472 19.503
52 1 0.627 1.668 20.444
53 1 0.439 1.501 21.499
54 1 0.627 1.590 22.616
55 1 0.480 1.559 23.646
56 1 0.432 1.497 24.653
57 1 0.447 1.653 25.783
58 1 0.518 1.662 26.761
59 1 0.520 1.489 27.745
60 1 0.572 1.478 28.949
61 1 0.485 1.515 29.866
62 1 0.629 1.656 30.994
63 1 0.461 1.655 31.955
64 1 0.465 1.554 33.118
65 1 0.529 2.538 0.450
66 1 0.449 2.566 1.560
67 1 0.484 2.598 2.564
68 1 0.429 2.530 3.690
69 1 0.559 2.575 4.810
70 1 0.457 2.602 5.712
71 1 0.538 2.677 6.903
72 1 0.471 2.533 7.853
73 1 0.517 2.542 8.912
74 1 0.609 2.691 9.966
75 1 0.592 2.684 11.076
76 1 0.448 2.616 12.054
77 1 0.448 2.567 13.226
78 1 0.481 2.651 14.192
79 1 0.573 2.574 15.144
80 1 0.510 2.611 16.243
81 1 0.534 2.603 17.411
82 1 0.572 2.721 18.400
83 1 0.506 2.704 19.449
84 1 0.577 2.646 20.514
85 1 0.624 2.660 21.440
86 1 0.473 2.576 22.639
87 1 0.471 2.727 23.577
88 1 0.628 2.601 24.669
89 1 0.627 2.713 25.709
90 1 0.554 2.534 26.679
91 1 0.519 2.550 27.772
92 1 0.557 2.554 28.802
93 1 0.626 2.719 29.820
94 1 0.523 2.657 30.964
95 1 0.574 2.558 31.975
96 1 0.586 2.578 33.016
97 1 0.481 3.618 0.432
98 1 0.458 3.667 1.628
99 1 0.512 3.687 2.525
100 1 0.424 3.707 3.769
101 1 0.436 3.738 4.775
102 1 0.479 3.739 5.777
103 1 0.527 3.569 6.761
104 1 0.495 3.590 7.963
105 1 0.589 3.603 9.019
106 1 0.476 3.665 9.906
107 1 0.604 3.731 11.073
108 1 0.428 3.667 12.039
109 1 0.538 3.735 13.070
110 1 0.567 3.649 14.161
111 1 0.592 3.765 15.271
112 1 0.553 3.622 16.211
113 1 0.533 3.716 17.224
114 1 0.580 3.736 18.424
115 1 0.488 3.583 19.321
116 1 0.566 3.692 20.521
117 1 0.453 3.680 21.557
118 1 0.574 3.698 22.596
119 1 0.429 3.722 23.602
120 1 0.445 3.747 24.701
121 1 0.531 3.733 25.641
122 1 0.587 3.747 26.747
123 1 0.581 3.600 27.745
124 1 0.618 3.590 28.806
125 1 0.605 3.571 29.874
126 1 0.518 3.717 31.023
127 1 0.585 3.709 32.049
128 1 0.438 3.758 33.107
129 1 0.508 4.673 0.602
130 1 0.432 4.758 1.510
131 1 0.592 4.773 2.556
132 1 0.491 4.657 3.759
133 1 0.469 4.710 4.717
134 1 0.424 4.780 5.776
135 1 0.438 4.709 6.783
136 1 0.491 4.623 7.885
137 1 0.530 4.794 8.895
138 1 0.521 4.801 9.907
139 1 0.600 4.731 10.995
140 1 0.431 4.689 12.008
141 1 0.449 4.663 13.030
142 1 0.504 4.750 14.146
143 1 0.509 4.791 15.178
144 1 0.552 4.704 16.168
145 1 0.453 4.786 17.267
146 1 0.477 4.712 18.281
147 1 0.527 4.710 19.515
148 1 0.518 4.710 20.422
149 1 0.517 4.803 21.542
150 1 0.544 4.628 22.617
151 1 0.505 4.633 23.638
152 1 0.527 4.631 24.653
153 1 0.613 4.750 25.643
154 1 0.431 4.814 26.823
155 1 0.484 4.792 27.893
156 1 0.568 4.816 28.911
157 1 0.515 4.662 29.857
158 1 0.461 4.660 31.068
159 1 0.545 4.692 32.065
160 1 0.598 4.732 33.145
161 1 0.549 5.793 0.552
162 1 0.462 5.718 1.507
163 1 0.463 5.869 2.695
164 1 0.601 5.822 3.636
165 1 0.497 5.715 4.620
166 1 0.465 5.776 5.736
167 1 0.507 5.712 6.847
168 1 0.527 5.779 7.940
169 1 0.431 5.724 8.992
170 1 0.475 5.863 10.070
171 1 0.582 5.811 11.042
172 1 0.472 5.716 12.058
173 1 0.515 5.680 13.131
174 1 0.427 5.728 14.254
175 1 0.539 5.868 15.211
176 1 0.562 5.822 16.241
177 1 0.541 5.832 17.409
178 1 0.594 5.864 18.295
179 1 0.438 5.694 19.425
180 1 0.426 5.829 20.527
181 1 0.592 5.850 21.575
182 1 0.580 5.701 22.489
183 1 0.566 5.715 23.648
184 1 0.556 5.710 24.681
185 1 0.525 5.785 25.812
186 1 0.431 5.747 26.664
187 1 0.546 5.692 27.871
188 1 0.559 5.685 28.872
189 1 0.442 5.757 29.814
190 1 0.474 5.754 30.863
191 1 0.469 5.776 32.014
192 1 0.618 5.724 33.138
193 1 0.471 6.895 0.469
194 1 0.460 6.846 1.653
195 1 0.482 6.814 2.529
196 1 0.620 6.742 3.648
197 1 0.528 6.819 4.691
198 1 0.620 6.925 5.713
199 1 0.472 6.776 6.802
200 1 0.536 6.864 7.769
201 1 0.617 6.756 8.826
202 1 0.568 6.876 10.073
203 1 0.534 6.730 10.926
204 1 0.478 6.897 12.025
205 1 0.624 6.727 13.166
206 1 0.564 6.735 14.133
207 1 0.574 6.878 15.166
208 1 0.553 6.777 16.284
209 1 0.617 6.764 17.250
210 1 0.560 6.792 18.421
211 1 0.587 6.792 19.316
212 1 0.567 6.764 20.569
213 1 0.525 6.737 21.417
214 1 0.425 6.814 22.579
215 1 0.473 6.808 23.675
216 1 0.629 6.903 24.601
217 1 0.599 6.905 25.702
218 1 0.507 6.822 26.857
219 1 0.463 6.798 27.852
220 1 0.549 6.735 28.897
221 1 0.424 6.850 29.896
222 1 0.513 6.825 31.052
223 1 0.518 6.786 31.983
224 1 0.585 6.733 33.164
225 1 0.626 7.826 0.502
226 1 0.580 7.960 1.598
227 1 0.529 7.852 2.549
228 1 0.608 7.803 3.706
229 1 0.612 7.833 4.717
230 1 0.460 7.838 5.800
231 1 0.584 7.794 6.732
232 1 0.514 7.894 7.795
233 1 0.553 7.900 8.880
234 1 0.518 7.920 10.031
235 1 0.560 7.858 10.945
236 1 0.477 7.926 11.996
237 1 0.626 7.852 13.095
238 1 0.520 7.965 14.199
239 1 0.525 7.849 15.289
240 1 0.421 7.832 16.181
241 1 0.557 7.821 17.316
242 1 0.484 7.924 18.362
243 1 0.502 7.971 19.522
244 1 0.541 7.868 20.538
245 1 0.600 7.900 21.429
246 1 0.621 7.855 22.535
247 1 0.445 7.811 23.606
248 1 0.610 7.977 24.584
249 1 0.628 7.865 25.694
250 1 0.609 7.877 26.699
251 1 0.425 7.953 27.783
252 1 0.483 7.853 28.957
253 1 0.492 7.916 29.970
254 1 0.463 7.960 31.072
255 1 0.503 7.929 32.009
256 1 0.444 7.794 33.071
257 1 0.555 8.966 0.464
258 1 0.466 8.993 1.485
259 1 0.576 8.964 2.651
260 1 0.526 8.971 3.679
261 1 0.519 8.997 4.636
262 1 0.511 8.845 5.738
263 1 0.473 8.900 6.780
264 1 0.605 9.015 7.781
265 1 0.442 8.984 8.842
266 1 0.565 8.877 10.059
267 1 0.507 8.925 10.944
268 1 0.447 8.834 12.155
269 1 0.541 8.942 13.213
270 1 0.515 8.990 14.216
271 1 0.438 8.963 15.296
272 1 0.472 8.867 16.192
273 1 0.570 9.025 17.221
274 1 0.554 8.904 18.475
275 1 0.439 8.908 19.497
276 1 0.526 9.012 20.479
277 1 0.574 9.014 21.499
278 1 0.557 8.979 22.569
279 1 0.456 9.015 23.573
280 1 0.481 8.846 24.650
281 1 0.578 8.909 25.807
282 1 0.543 8.864 26.825
283 1 0.580 8.991 27.912
284 1 0.571 8.863 28.920
285 1 0.421 8.823 29.818
286 1 0.459 8.830 30.879
287 1 0.567 8.846 31.979
288 1 0.598 8.863 33.023
289 1 0.456 9.930 0.605
290 1 0.482 9.881 1.670
291 1 0.548 9.877 2.727
292 1 0.599 9.963 3.663
293 1 0.507 9.945 4.732
294 1 0.615 9.967 5.735
295 1 0.444 10.027 6.780
296 1 0.422 9.925 7.939
297 1 0.611 10.068 8.868
298 1 0.532 9.911 9.899
299 1 0.490 9.924 10.987
300 1 0.544 10.039 11.984
301 1 0.549 10.020 13.171
302 1 0.421 9.972 14.074
303 1 0.513 9.936 15.314
304 1 0.443 9.957 16.301
305 1 0.516 10.047 17.361
306 1 0.622 10.077 18.304
307 1 0.460 9.922 19.472
308 1 0.484 9.941 20.466
309 1 0.483 10.008 21.576
310 1 0.427 9.981 22.503
311 1 0.572 9.973 23.687
312 1 0.604 10.021 24.571
313 1 0.552 9.926 25.624
314 1 0.576 10.077 26.719
315 1 0.434 9.898 27.920
316 1 0.424 9.947 28.911
317 1 0.582 9.940 29.968
318 1 0.604 10.033 30.917
319 1 0.541 9.965 31.914
320 1 0.473 10.060 33.166
321 1 0.556 10.943 0.476
322 1 0.542 11.048 1.490
323 1 0.608 10.936 2.609
324 1 0.550 11.104 3.679
325 1 0.447 11.060 4.647
326 1 0.423 11.014 5.787
327 1 0.473 11.018 6.743
328 1 0.537 10.963 7.937
329 1 0.574 11.117 8.982
330 1 0.481 11.036 9.937
331 1 0.464 11.008 11.007
332 1 0.446 11.121 12.110
333 1 0.422 10.925 13.079
334 1 0.440 10.929 14.228
335 1 0.624 11.126 15.258
336 1 0.623 11.115 16.239
337 1 0.602 10.973 17.329
338 1 0.530 11.038 18.353
339 1 0.462 10.994 19.400
340 1 0.603 11.095 20.519
341 1 0.451 10.936 21.565
342 1 0.509 11.125 22.659
343 1 0.431 11.052 23.574
344 1 0.598 11.093 24.679
345 1 0.574 11.013 25.649
346 1 0.605 11.069 26.726
347 1 0.552 10.938 27.732
348 1 0.484 10.996 28.841
349 1 0.477 10.994 29.971
350 1 0.424 11.039 30.913
351 1 0.455 10.951 32.088
352 1 0.619 11.085 33.103
353 1 0.587 12.148 0.479
354 1 0.526 12.053 1.523
355 1 0.602 11.968 2.662
356 1 0.492 12.165 3.728
357 1 0.460 12.083 4.699
358 1 0.473 12.166 5.771
359 1 0.474 12.175 6.857
360 1 0.436 12.065 7.928
361 1 0.470 12.048 8.906
362 1 0.622 12.011 9.969
363 1 0.487 12.108 11.116
364 1 0.456 12.162 12.126
365 1 0.432 12.158 13.211
366 1 0.557 12.166 14.087
367 1 0.503 12.105 15.198
368 1 0.471 12.165 16.260
369 1 0.467 12.013 17.228
370 1 0.566 12.013 18.286
371 1 0.555 12.098 19.508
372 1 0.450 11.985 20.411
373 1 0.534 12.175 21.591
374 1 0.548 12.076 22.568
375 1 0.589 12.160 23.566
376 1 0.422 12.065 24.583
377 1 0.468 12.046 25.716
378 1 0.451 12.147 26.828
379 1 0.531 12.056 27.841
380 1 0.437 12.153 28.912
381 1 0.425 12.039 29.854
382 1 0.523 12.115 31.000
383 1 0.437 12.037 32.046
384 1 0.627 12.076 33.056
385 1 0.493 13.149 0.450
386 1 0.587 13.200 1.483
387 1 0.504 13.076 2.652
388 1 0.544 13.052 3.580
389 1 0.427 13.106 4.663
390 1 0.488 13.170 5.853
391 1 0.504 13.088 6.843
392 1 0.423 13.088 7.913
393 1 0.482 13.176 8.920
394 1 0.423 13.173 9.994
395 1 0.441 13.222 10.992
396 1 0.524 13.163 12.006
397 1 0.498 13.097 13.167
398 1 0.501 13.055 14.125
399 1 0.530 13.027 15.184
400 1 0.621 13.093 16.236
401 1 0.600 13.065 17.352
402 1 0.614 13.091 18.306
403 1 0.498 13.143 19.498
404 1 0.479 13.085 20.415
405 1 0.423 13.024 21.568
406 1 0.628 13.032 22.604
407 1 0.465 13.173 23.647
408 1 0.444 13.221 24.742
409 1 0.517 13.208 25.706
410 1 0.484 13.108 26.763
411 1 0.522 13.068 27.718
412 1 0.541 13.039 28.830
413 1 0.531 13.071 29.944
414 1 0.530 13.086 30.887
415 1 0.473 13.154 32.021
416 1 0.460 13.161 32.974
417 1 0.508 14.182 0.487
418 1 0.532 14.129 1.633
419 1 0.424 14.193 2.697
420 1 0.446 14.100 3.753
421 1 0.505 14.244 4.666
422 1 0.562 14.098 5.684
423 1 0.467 14.076 6.922
424 1 0.501 14.133 7.875
425 1 0.629 14.080 9.013
426 1 0.502 14.113 9.919
427 1 0.512 14.269 10.942
428 1 0.543 14.160 11.994
429 1 0.438 14.073 13.072
430 1 0.532 14.101 14.236
431 1 0.466 14.109 15.172
432 1 0.438 14.167 16.263
433 1 0.489 14.082 17.284
434 1 0.462 14.098 18.474
435 1 0.445 14.223 19.471
436 1 0.618 14.145 20.466
437 1 0.625 14.204 21.497
438 1 0.523 14.191 22.674
439 1 0.545 14.089 23.602
440 1 0.492 14.115 24.671
441 1 0.426 14.113 25.638
442 1 0.575 14.257 26.852
443 1 0.528 14.188 27.738
444 1 0.583 14.228 28.932
445 1 0.544 14.073 29.993
446 1 0.426 14.155 30.904
447 1 0.522 14.263 32.111
448 1 0.524 14.149 33.047
449 1 0.490 15.138 0.428
450 1 0.600 15.198 1.565
451 1 0.543 15.280 2.602
452 1 0.495 15.141 3.578
453 1 0.520 15.180 4.680
454 1 0.528 15.266 5.685
455 1 0.593 15.170 6.895
456 1 0.484 15.151 7.943
457 1 0.458 15.193 8.937
458 1 0.493 15.277 9.869
459 1 0.603 15.140 11.025
460 1 0.558 15.285 12.035
461 1 0.491 15.246 13.200
462 1 0.517 15.304 14.083
463 1 0.595 15.247 15.125
464 1 0.506 15.208 16.263
465 1 0.432 15.299 17.224
466 1 0.588 15.231 18.380
467 1 0.427 15.184 19.521
468 1 0.606 15.141 20.570
469 1 0.553 15.189 21.535
470 1 0.561 15.299 22.629
471 1 0.529 15.313 23.715
472 1 0.564 15.169 24.700
473 1 0.613 15.143 25.731
474 1 0.517 15.212 26.773
475 1 0.616 15.249 27.865
476 1 0.622 15.160 28.903
477 1 0.597 15.272 29.834
478 1 0.538 15.204 30.873
479 1 0.518 15.155 32.060
480 1 0.488 15.276 33.053
481 1 0.424 16.297 0.420
482 1 0.517 16.272 1.660
483 1 0.537 16.248 2.600
484 1 0.532 16.245 3.639
485 1 0.555 16.326 4.672
486 1 0.532 16.179 5.807
487 1 0.553 16.183 6.764
488 1 0.485 16.321 7.786
489 1 0.530 16.183 8.853
490 1 0.573 16.371 9.955
491 1 0.500 16.199 11.101
492 1 0.531 16.335 12.019
493 1 0.534 16.269 13.205
494 1 0.473 16.300 14.259
495 1 0.518 16.318 15.230
496 1 0.565 16.243 16.180
497 1 0.453 16.302 17.398
498 1 0.586 16.315 18.428
499 1 0.581 16.238 19.484
500 1 0.449 16.284 20.533
501 1 0.442 16.272 21.458
502 1 0.448 16.331 22.499
503 1 0.422 16.185 23.525
504 1 0.462 16.197 24.693
505 1 0.436 16.319 25.749
506 1 0.479 16.358 26.716
507 1 0.423 16.258 27.769
508 1 0.490 16.288 28.877
509 1 0.557 16.274 29.845
510 1 0.551 16.335 30.887
511 1 0.623 16.357 32.073
512 1 0.448 16.289 33.058
513 1 0.503 17.288 0.519
514 1 0.610 17.411 1.648
515 1 0.522 17.349 2.580
516 1 0.566 17.376 3.663
517 1 0.621 17.373 4.626
518 1 0.515 17.411 5.696
519 1 0.599 17.331 6.742
520 1 0.456 17.230 7.854
521 1 0.459 17.389 9.014
522 1 0.483 17.377 9.953
523 1 0.593 17.419 11.076
524 1 0.475 17.399 12.123
525 1 0.443 17.349 13.040
526 1 0.535 17.218 14.119
527 1 0.609 17.292 15.153
528 1 0.444 17.409 16.168
529 1 0.540 17.300 17.360
530 1 0.503 17.417 18.451
531 1 0.452 17.380 19.393
532 1 0.547 17.342 20.402
533 1 0.558 17.274 21.466
534 1 0.451 17.381 22.482
535 1 0.496 17.295 23.682
536 1 0.488 17.418 24.641
537 1 0.464 17.305 25.641
538 1 0.436 17.296 26.746
539 1 0.554 17.239 27.782
540 1 0.614 17.373 28.961
541 1 0.527 17.386 30.007
542 1 0.436 17.365 31.031
543 1 0.507 17.350 31.950
544 1 0.457 17.283 33.040
545 1 0.590 18.354 0.458
546 1 0.544 18.278 1.575
547 1 0.575 18.297 2.594
548 1 0.581 18.453 3.759
549 1 0.467 18.349 4.702
550 1 0.564 18.414 5.791
551 1 0.607 18.456 6.836
552 1 0.537 18.459 7.842
553 1 0.459 18.407 8.957
554 1 0.456 18.464 9.997
555 1 0.515 18.277 11.012
556 1 0.446 18.452 12.025
557 1 0.621 18.381 13.226
558 1 0.502 18.364 14.078
559 1 0.509 18.421 15.167
560 1 0.446 18.348 16.198
561 1 0.527 18.286 17.229
562 1 0.531 18.302 18.377
563 1 0.566 18.300 19.324
564 1 0.462 18.413 20.404
565 1 0.514 18.413 21.534
566 1 0.461 18.419 22.483
567 1 0.552 18.476 23.539
568 1 0.465 18.313 24.588
569 1 0.453 18.291 25.649
570 1 0.484 18.328 26.673
571 1 0.587 18.409 27.828
572 1 0.485 18.325 28.890
573 1 0.508 18.454 29.921
574 1 0.618 18.434 30.956
575 1 0.461 18.297 31.969
576 1 0.509 18.459 33.130
577 1 0.497 19.354 0.557
578 1 0.433 19.406 1.623
579 1 0.470 19.348 2.698
580 1 0.573 19.344 3.745
581 1 0.526 19.491 4.800
582 1 0.510 19.471 5.841
583 1 0.614 19.462 6.863
584 1 0.605 19.396 7.955
585 1 0.523 19.375 8.873
586 1 0.615 19.332 10.027
587 1 0.452 19.455 11.115
588 1 0.582 19.428 11.992
589 1 0.581 19.520 13.036
590 1 0.614 19.381 14.123
591 1 0.542 19.421 15.201
592 1 0.542 19.460 16.186
593 1 0.500 19.402 17.279
594 1 0.532 19.338 18.414
595 1 0.586 19.374 19.349
596 1 0.584 19.388 20.422
597 1 0.459 19.451 21.551
598 1 0.502 19.432 22.586
599 1 0.466 19.498 23.718
600 1 0.567 19.324 24.644
601 1 0.614 19.481 25.657
602 1 0.507 19.404 26.729
603 1 0.492 19.364 27.820
604 1 0.470 19.507 28.901
605 1 0.485 19.321 30.023
606 1 0.560 19.516 30.924
607 1 0.560 19.327 32.114
608 1 0.594 19.374 32.965
609 1 0.621 20.370 0.445
610 1 0.484 20.498 1.484
611 1 0.525 20.490 2.606
612 1 0.529 20.540 3.754
613 1 0.576 20.401 4.777
614 1 0.450 20.437 5.689
615 1 0.513 20.399 6.728
616 1 0.495 20.524 7.898
617 1 0.571 20.550 8.986
618 1 0.427 20.445 10.055
619 1 0.478 20.538 10.922
620 1 0.620 20.441 12.046
621 1 0.629 20.407 13.035
622 1 0.456 20.433 14.151
623 1 0.452 20.569 15.143
624 1 0.456 20.549 16.306
625 1 0.454 20.539 17.420
626 1 0.458 20.441 18.313
627 1 0.574 20.470 19.333
628 1 0.518 20.389 20.545
629 1 0.470 20.449 21.599
630 1 0.563 20.508 22.544
631 1 0.504 20.511 23.675
632 1 0.532 20.499 24.664
633 1 0.601 20.474 25.749
634 1 0.612 20.395 26.692
635 1 0.499 20.557 27.748
636 1 0.620 20.487 28.956
637 1 0.614 20.498 29.858
638 1 0.528 20.385 30.959
639 1 0.538 20.516 32.052
640 1 0.457 20.527 33.110
641 1 0.546 21.450 0.588
642 1 0.507 21.428 1.521
643 1 0.526 21.498 2.612
644 1 0.550 21.422 3.705
645 1 0.617 21.497 4.621
646 1 0.550 21.562 5.760
647 1 0.548 21.430 6.719
648 1 0.538 21.415 7.896
649 1 0.435 21.531 8.856
650 1 0.519 21.439 9.984
651 1 0.453 21.487 11.074
652 1 0.450 21.585 12.069
653 1 0.549 21.624 13.084
654 1 0.502 21.566 14.175
655 1 0.495 21.574 15.314
656 1 0.455 21.545 16.257
657 1 0.444 21.508 17.418
658 1 0.558 21.602 18.340
659 1 0.455 21.423 19.427
660 1 0.464 21.439 20.426
661 1 0.425 21.427 21.568
662 1 0.577 21.564 22.621
663 1 0.563 21.422 23.523
664 1 0.426 21.557 24.579
665 1 0.493 21.476 25.794
666 1 0.628 21.518 26.732
667 1 0.435 21.437 27.743
668 1 0.550 21.558 28.912
669 1 0.514 21.567 29.924
670 1 0.523 21.425 30.967
671 1 0.458 21.483 31.918
672 1 0.431 21.604 33.167
673 1 0.618 22.510 0.427
674 1 0.433 22.548 1.630
675 1 0.556 22.488 2.718
676 1 0.593 22.522 3.597
677 1 0.542 22.600 4.778
678 1 0.452 22.514 5.694
679 1 0.453 22.545 6.806
680 1 0.519 22.534 7.865
681 1 0.496 22.579 8.963
682 1 0.576 22.600 10.042
683 1 0.487 22.637 11.078
684 1 0.475 22.592 12.034
685 1 0.450 22.594 13.079
686 1 0.611 22.641 14.179
687 1 0.506 22.528 15.221
688 1 0.629 22.472 16.350
689 1 0.591 22.633 17.246
690 1 0.487 22.665 18.419
691 1 0.568 22.496 19.329
692 1 0.517 22.600 20.483
693 1 0.491 22.523 21.550
694 1 0.558 22.490 22.659
695 1 0.522 22.539 23.580
696 1 0.467 22.483 24.613
697 1 0.462 22.517 25.713
698 1 0.619 22.626 26.751
699 1 0.555 22.552 27.819
700 1 0.474 22.655 28.863
701 1 0.564 22.479 29.838
702 1 0.494 22.465 30.865
703 1 0.452 22.514 32.007
704 1 0.596 22.485 33.103
705 1 0.509 23.569 0.522
706 1 0.466 23.670 1.571
707 1 0.552 23.652 2.665
708 1 0.433 23.520 3.739
709 1 0.545 23.693 4.736
710 1 0.508 23.627 5.781
711 1 0.508 23.613 6.808
712 1 0.434 23.720 7.900
713 1 0.558 23.575 8.992
714 1 0.619 23.561 10.040
715 1 0.432 23.685 11.035
716 1 0.602 23.524 12.017
717 1 0.485 23.562 13.179
718 1 0.466 23.694 14.110
719 1 0.472 23.590 15.192
720 1 0.452 23.557 16.361
721 1 0.598 23.551 17.402
722 1 0.477 23.682 18.384
723 1 0.499 23.659 19.420
724 1 0.548 23.648 20.508
725 1 0.595 23.594 21.435
726 1 0.589 23.519 22.626
727 1 0.591 23.710 23.570
728 1 0.618 23.544 24.717
729 1 0.446 23.598 25.768
730 1 0.459 23.638 26.827
731 1 0.550 23.690 27.742
732 1 0.466 23.610 28.871
733 1 0.491 23.534 29.879
734 1 0.481 23.686 31.070
735 1 0.428 23.674 31.993
736 1 0.522 23.662 33.016
737 1 0.546 24.652 0.568
738 1 0.427 24.604 1.612
739 1 0.587 24.701 2.639
740 1 0.497 24.650 3.644
741 1 0.464 24.770 4.775
742 1 0.501 24.599 5.729
743 1 0.558 24.580 6.783
744 1 0.600 24.749 7.891
745 1 0.494 24.654 8.996
746 1 0.426 24.697 9.970
747 1 0.503 24.686 11.089
748 1 0.467 24.577 12.176
749 1 0.593 24.684 13.170
750 1 0.476 24.635 14.072
751 1 0.562 24.689 15.260
752 1 0.529 24.617 16.337
753 1 0.448 24.689 17.360
754 1 0.433 24.713 18.374
755 1 0.581 24.679 19.489
756 1 0.578 24.700 20.567
757 1 0.530 24.643 21.512
758 1 0.432 24.773 22.658
759 1 0.489 24.698 23.594
760 1 0.444 24.771 24.641
761 1 0.512 24.766 25.770
762 1 0.452 24.747 26.793
763 1 0.527 24.658 27.896
764 1 0.427 24.567 28.846
765 1 0.606 24.772 29.900
766 1 0.563 24.591 30.928
767 1 0.604 24.771 32.119
768 1 0.470 24.725 33.120
769 1 0.559 25.636 0.520
770 1 0.605 25.763 1.576
771 1 0.511 25.656 2.564
772 1 0.554 25.732 3.660
773 1 0.604 25.691 4.706
774 1 0.574 25.630 5.756
775 1 0.444 25.712 6.915
776 1 0.480 25.631 7.784
777 1 0.475 25.769 8.987
778 1 0.577 25.766 9.938
779 1 0.443 25.817 11.116
780 1 0.481 25.648 12.101
781 1 0.501 25.662 13.049
782 1 0.586 25.665 14.239
783 1 0.430 25.817 15.154
784 1 0.563 25.620 16.197
785 1 0.523 25.627 17.320
786 1 0.516 25.639 18.276
787 1 0.600 25.719 19.461
788 1 0.554 25.620 20.418
789 1 0.535 25.777 21.568
790 1 0.591 25.758 22.514
791 1 0.550 25.820 23.647
792 1 0.573 25.640 24.717
793 1 0.570 25.734 25.748
794 1 0.500 25.798 26.745
795 1 0.575 25.700 27.735
796 1 0.497 25.667 28.918
797 1 0.480 25.653 29.855
798 1 0.428 25.662 30.899
799 1 0.545 25.710 31.977
800 1 0.516 25.616 33.012
801 1 0.513 26.866 0.558
802 1 0.484 26.739 1.638
803 1 0.574 26.846 2.724
804 1 0.483 26.847 3.698
805 1 0.551 26.792 4.641
806 1 0.601 26.808 5.854
807 1 0.460 26.765 6.772
808 1 0.453 26.695 7.811
809 1 0.444 26.799 8.853
810 1 0.546 26.869 9.870
811 1 0.449 26.733 10.943
812 1 0.518 26.831 11.974
813 1 0.545 26.848 13.180
814 1 0.451 26.676 14.212
815 1 0.447 26.813 15.140
816 1 0.490 26.721 16.218
817 1 0.442 26.728 17.328
818 1 0.582 26.687 18.458
819 1 0.602 26.808 19.386
820 1 0.563 26.846 20.474
821 1 0.587 26.743 21.526
822 1 0.518 26.835 22.543
823 1 0.427 26.845 23.660
824 1 0.537 26.859 24.603
825 1 0.557 26.723 25.748
826 1 0.602 26.822 26.750
827 1 0.518 26.696 27.745
828 1 0.461 26.724 28.764
829 1 0.435 26.782 29.840
830 1 0.440 26.800 30.954
831 1 0.487 26.753 32.086
832 1 0.514 26.821 32.964
833 1 0.551 27.844 0.458
834 1 0.572 27.875 1.575
835 1 0.528 27.880 2.527
836 1 0.499 27.805 3.731
837 1 0.461 27.877 4.678
838 1 0.559 27.878 5.700
839 1 0.506 27.791 6.810
840 1 0.618 27.873 7.835
841 1 0.495 27.741 9.023
842 1 0.570 27.881 9.927
843 1 0.551 27.838 11.127
844 1 0.541 27.824 12.117
845 1 0.501 27.751 13.222
846 1 0.428 27.817 14.101
847 1 0.568 27.751 15.156
848 1 0.629 27.833 16.263
849 1 0.609 27.736 17.356
850 1 0.543 27.850 18.454
851 1 0.541 27.735 19.375
852 1 0.591 27.904 20.551
853 1 0.534 27.885 21.563
854 1 0.555 27.918 22.527
855 1 0.486 27.814 23.706
856 1 0.464 27.891 24.610
857 1 0.565 27.810 25.810
858 1 0.539 27.810 26.698
859 1 0.553 27.746 27.731
860 1 0.583 27.910 28.894
861 1 0.569 27.813 29.957
862 1 0.438 27.921 30.960
863 1 0.485 27.920 31.996
864 1 0.541 27.723 33.142
865 1 0.606 28.928 0.537
866 1 0.546 28.888 1.585
867 1 0.481 28.935 2.532
868 1 0.579 28.860 3.632
869 1 0.598 28.936 4.778
870 1 0.574 28.913 5.824
871 1 0.457 28.900 6.908
872 1 0.540 28.941 7.958
873 1 0.449 28.896 8.857
874 1 0.571 28.970 9.900
875 1 0.439 28.812 11.086
876 1 0.497 28.843 12.039
877 1 0.551 28.962 13.225
878 1 0.616 28.960 14.158
879 1 0.583 28.799 15.179
880 1 0.517 28.929 16.350
881 1 0.461 28.850 17.348
882 1 0.537 28.918 18.366
883 1 0.623 28.853 19.398
884 1 0.571 28.857 20.466
885 1 0.531 28.861 21.437
886 1 0.559 28.870 22.672
887 1 0.466 28.831 23.646
888 1 0.598 28.806 24.756
889 1 0.620 28.833 25.695
890 1 0.485 28.896 26.672
891 1 0.525 28.887 27.773
892 1 0.585 28.793 28.958
893 1 0.498 28.883 29.877
894 1 0.625 28.788 30.911
895 1 0.593 28.832 32.110
896 1 0.458 28.842 32.989
897 1 0.429 29.891 0.563
898 1 0.487 29.818 1.523
899 1 0.526 29.984 2.652
900 1 0.548 30.017 3.624
901 1 0.572 29.814 4.672
902 1 0.487 29.835 5.847
903 1 0.613 29.892 6.788
904 1 0.465 30.010 7.805
905 1 0.581 29.883 9.009
906 1 0.491 30.013 9.934
907 1 0.563 29.938 11.095
908 1 0.496 29.960 12.089
909 1 0.476 29.866 13.073
910 1 0.534 29.944 14.077
911 1 0.629 29.860 15.167
912 1 0.465 29.943 16.168
913 1 0.618 29.874 17.316
914 1 0.585 29.850 18.401
915 1 0.477 29.934 19.475
916 1 0.614 29.945 20.533
917 1 0.478 29.876 21.510
918 1 0.542 29.908 22.606
919 1 0.439 29.970 23.520
920 1 0.462 29.854 24.632
921 1 0.558 30.020 25.625
922 1 0.544 29.878 26.782
923 1 0.465 29.927 27.764
924 1 0.626 29.915 28.963
925 1 0.578 29.836 29.839
926 1 0.618 29.866 31.041
927 1 0.582 30.011 32.075
928 1 0.599 29.949 33.145
929 1 0.623 31.059 0.557
930 1 0.518 31.050 1.575
931 1 0.541 31.006 2.535
932 1 0.436 30.919 3.743
933 1 0.524 30.994 4.755
934 1 0.571 31.069 5.727
935 1 0.538 30.978 6.757
936 1 0.483 31.069 7.881
937 1 0.594 31.008 8.918
938 1 0.504 31.040 10.077
939 1 0.474 31.026 11.118
940 1 0.462 31.018 12.160
941 1 0.495 31.010 13.109
942 1 0.497 30.879 14.248
943 1 0.496 30.940 15.265
944 1 0.617 30.986 16.279
945 1 0.605 30.956 17.363
946 1 0.524 30.922 18.272
947 1 0.441 31.057 19.458
948 1 0.615 31.031 20.431
949 1 0.579 30.877 21.450
950 1 0.441 31.028 22.472
951 1 0.609 31.067 23.673
952 1 0.588 30.901 24.751
953 1 0.468 30.951 25.657
954 1 0.494 30.866 26.767
955 1 0.421 30.909 27.771
956 1 0.450 30.876 28.766
957 1 0.522 31.047 29.921
958 1 0.435 30.963 30.887
959 1 0.461 30.934 31.923
960 1 0.505 31.052 33.134
961 1 0.462 32.030 0.513
962 1 0.602 32.073 1.675
963 1 0.496 32.078 2.651
964 1 0.442 32.117 3.765
965 1 0.606 31.932 4.774
966 1 0.517 32.002 5.746
967 1 0.436 32.114 6.793
968 1 0.433 32.031 7.930
969 1 0.493 31.999 8.910
970 1 0.592 31.985 9.909
971 1 0.437 31.931 11.127
972 1 0.540 32.118 12.160
973 1 0.512 31.971 13.033
974 1 0.480 31.996 14.242
975 1 0.579 31.998 15.147
976 1 0.545 32.066 16.316
977 1 0.540 32.042 17.416
978 1 0.533 31.976 18.325
979 1 0.472 32.103 19.481
980 1 0.575 32.022 20.489
981 1 0.472 32.069 21.479
982 1 0.475 32.117 22.589
983 1 0.428 32.039 23.590
984 1 0.452 31.988 24.736
985 1 0.567 32.083 25.725
986 1 0.439 31.914 26.677
987 1 0.515 31.932 27.857
988 1 0.614 31.937 28.918
989 1 0.554 32.083 29.892
990 1 0.507 31.990 31.030
991 1 0.603 32.025 31.933
992 1 0.618 31.997 33.155
993 1 0.524 33.061 0.458
994 1 0.520 33.094 1.577
995 1 0.537 33.169 2.535
996 1 0.482 33.022 3.593
997 1 0.534 33.141 4.642
998 1 0.614 33.102 5.689
999 1 0.613 32.980 6.795
1000 1 0.546 33.008 7.788
1001 1 0.440 33.028 8.869
1002 1 0.577 33.166 9.925
1003 1 0.540 33.028 10.937
1004 1 0.514 32.983 12.070
1005 1 0.480 33.048 13.026
1006 1 0.588 32.965 14.258
1007 1 0.518 33.088 15.153
1008 1 0.560 33.126 16.312
1009 1 0.605 33.059 17.412
1010 1 0.597 33.168 18.315
1011 1 0.575 33.091 19.346
1012 1 0.461 32.997 20.519
1013 1 0.488 33.069 21.510
1014 1 0.555 32.994 22.624
1015 1 0.443 33.154 23.669
1016 1 0.591 33.041 24.698
1017 1 0.447 33.036 25.811
1018 1 0.592 33.068 26.730
1019 1 0.556 33.077 27.920
1020 1 0.587 33.051 28.856
1021 1 0.432 32.975 29.887
1022 1 0.622 33.034 30.868
1023 1 0.428 33.097 31.914
1024 1 0.451 32.976 33.034
1025 1 1.522 0.556 0.538
1026 1 1.626 0.528 1.583
1027 1 1.552 0.533 2.691
1028 1 1.661 0.557 3.719
1029 1 1.577 0.522 4.685
1030 1 1.482 0.517 5.735
1031 1 1.493 0.608 6.879
1032 1 1.564 0.552 7.782
1033 1 1.513 0.504 9.021
1034 1 1.557 0.492 9.976
1035 1 1.478 0.450 11.005
1036 1 1.570 0.526 12.163
1037 1 1.601 0.625 13.078
1038 1 1.472 0.614 14.211
1039 1 1.507 0.604 15.216
1040 1 1.654 0.487 16.350
1041 1 1.477 0.590 17.385
1042 1 1.652 0.568 18.267
1043 1 1.641 0.563 19.329
1044 1 1.522 0.499 20.372
1045 1 1.535 0.596 21.446
1046 1 1.588 0.534 22.664
1047 1 1.480 0.432 23.712
1048 1 1.509 0.576 24.592
1049 1 1.579 0.504 25.647
1050 1 1.542 0.432 26.759
1051 1 1.555 0.499 27.883
1052 1 1.535 0.589 28.949
1053 1 1.618 0.442 30.022
1054 1 1.556 0.434 30.926
1055 1 1.664 0.487 32.102
1056 1 1.644 0.513 32.966
1057 1 1.533 1.652 0.427
1058 1 1.574 1.598 1.542
1059 1 1.589 1.540 2.672
1060 1 1.636 1.669 3.712
1061 1 1.564 1.654 4.824
1062 1 1.623 1.555 5.743
1063 1 1.511 1.544 6.850
1064 1 1.659 1.478 7.807
1065 1 1.582 1.655 8.953
1066 1 1.585 1.525 9.907
1067 1 1.599 1.667 11.111
1068 1 1.636 1.612 12.166
1069 1 1.596 1.596 13.161
1070 1 1.530 1.492 14.199
1071 1 1.536 1.653 15.245
1072 1 1.589 1.513 16.295
1073 1 1.537 1.610 17.295
1074 1 1.481 1.617 18.394
1075 1 1.615 1.551 19.486
1076 1 1.523 1.607 20.545
1077 1 1.497 1.515 21.541
1078 1 1.472 1.495 22.481
1079 1 1.570 1.490 23.523
1080 1 1.512 1.474 24.672
1081 1 1.566 1.489 25.746
1082 1 1.669 1.597 26.836
1083 1 1.635 1.478 27.770
1084 1 1.625 1.498 28.910
1085 1 1.625 1.549 30.003
1086 1 1.663 1.613 30.959
1087 1 1.661 1.536 31.924
1088 1 1.492 1.666 33.111
1089 1 1.613 2.705 0.595
1090 1 1.513 2.597 1.625
1091 1 1.560 2.527 2.546
1092 1 1.553 2.612 3.724
1093 1 1.631 2.561 4.713
1094 1 1.495 2.656 5.802
1095 1 1.483 2.664 6.928
1096 1 1.619 2.636 7.968
1097 1 1.478 2.612 8.976
1098 1 1.630 2.711 9.957
1099 1 1.514 2.645 10.937
1100 1 1.556 2.685 12.001
1101 1 1.547 2.588 13.096
1102 1 1.641 2.564 14.186
1103 1 1.470 2.541 15.120
1104 1 1.675 2.701 16.354
1105 1 1.489 2.664 17.222
1106 1 1.655 2.657 18.356
1107 1 1.634 2.632 19.406
1108 1 1.529 2.578 20.469
1109 1 1.548 2.533 21.556
1110 1 1.596 2.632 22.635
1111 1 1.642 2.629 23.619
1112 1 1.655 2.531 24.654
1113 1 1.661 2.535 25.780
1114 1 1.634 2.703 26.851
1115 1 1.508 2.716 27.820
1116 1 1.545 2.610 28.836
1117 1 1.604 2.618 29.826
1118 1 1.499 2.634 30.910
1119 1 1.539 2.531 32.013
1120 1 1.604 2.687 33.054
1121 1 1.638 3.697 0.497
1122 1 1.524 3.758 1.498
1123 1 1.531 3.644 2.601
1124 1 1.528 3.705 3.663
1125 1 1.653 3.610 4.719
1126 1 1.560 3.679 5.735
1127 1 1.520 3.644 6.824
1128 1 1.638 3.640 7.835
1129 1 1.562 3.683 8.918
1130 1 1.515 3.668 9.955
1131 1 1.489 3.702 11.113
1132 1 1.632 3.612 12.083
1133 1 1.531 3.581 13.137
1134 1 1.580 3.659 14.155
1135 1 1.488 3.660 15.217
1136 1 1.536 3.602 16.274
1137 1 1.482 3.669 17.411
1138 1 1.585 3.658 18.422
1139 1 1.660 3.579 19.356
1140 1 1.528 3.743 20.474
1141 1 1.648 3.579 21.469
1142 1 1.654 3.575 22.544
1143 1 1.495 3.642 23.656
1144 1 1.578 3.775 24.620
1145 1 1.536 3.638 25.630
1146 1 1.584 3.609 26.718
1147 1 1.475 3.666 27.840
1148 1 1.625 3.570 28.870
1149 1 1.546 3.633 29.912
1150 1 1.487 3.588 31.047
1151 1 1.620 3.700 31.949
1152 1 1.519 3.587 33.112
1153 1 1.572 4.648 0.573
1154 1 1.539 4.665 1.551
1155 1 1.612 4.775 2.716
1156 1 1.544 4.811 3.709
1157 1 1.566 4.697 4.666
1158 1 1.674 4.714 5.673
1159 1 1.594 4.682 6.730
1160 1 1.550 4.762 7.943
1161 1 1.676 4.768 8.945
1162 1 1.515 4.741 10.030
1163 1 1.596 4.791 10.934
1164 1 1.496 4.720 12.000
1165 1 1.671 4.734 13.098
1166 1 1.631 4.668 14.089
1167 1 1.616 4.736 15.163
1168 1 1.658 4.702 16.368
1169 1 1.575 4.678 17.368
1170 1 1.482 4.783 18.338
1171 1 1.476 4.638 19.330
1172 1 1.550 4.787 20.555
1173 1 1.619 4.620 21.434