ESPResSo++ data file of simulation

1000 atoms

1 atom types
0.0000000000000000e+00 1.0000000000000000e+01 xlo xhi
0.0000000000000000e+00 1.0000000000000000e+01 ylo yhi
0.0000000000000000e+00 1.0000000000000000e+01 zlo zhi

Masses

1 1

Atoms

1 1 4.4999999999999996e-01 4.4999999999999996e-01 4.4999999999999996e-01 0 0 0
2 1 4.7999999999999998e-01 4.7999999999999998e-01 1.4800000000000000e+00 0 0 0
3 1 5.1000000000000001e-01 5.1000000000000001e-01 2.5099999999999998e+00 0 0 0
4 1 5.4000000000000004e-01 5.4000000000000004e-01 3.5400000000000000e+00 0 0 0
5 1 4.5999999999999996e-01 4.5999999999999996e-01 4.4600000000000000e+00 0 0 0
6 1 4.8999999999999999e-01 4.8999999999999999e-01 5.4900000000000002e+00 0 0 0
7 1 5.2000000000000002e-01 5.2000000000000002e-01 6.5199999999999996e+00 0 0 0
8 1 5.5000000000000004e-01 5.5000000000000004e-01 7.5499999999999998e+00 0 0 0
9 1 4.6999999999999997e-01 4.6999999999999997e-01 8.4700000000000006e+00 0 0 0
10 1 5.0000000000000000e-01 5.0000000000000000e-01 9.5000000000000000e+00 0 0 0
11 1 4.6999999999999997e-01 1.4700000000000000e+00 4.6999999999999997e-01 0 0 0
12 1 5.0000000000000000e-01 1.5000000000000000e+00 1.5000000000000000e+00 0 0 0
13 1 5.3000000000000003e-01 1.5300000000000000e+00 2.5300000000000002e+00 0 0 0
14 1 4.4999999999999996e-01 1.4500000000000000e+00 3.4500000000000002e+00 0 0 0
15 1 4.7999999999999998e-01 1.4800000000000000e+00 4.4800000000000004e+00 0 0 0
16 1 5.1000000000000001e-01 1.5100000000000000e+00 5.5099999999999998e+00 0 0 0
17 1 5.4000000000000004e-01 1.5400000000000000e+00 6.5400000000000000e+00 0 0 0
18 1 4.5999999999999996e-01 1.4600000000000000e+00 7.4600000000000000e+00 0 0 0
19 1 4.8999999999999999e-01 1.4900000000000000e+00 8.4900000000000002e+00 0 0 0
20 1 5.2000000000000002e-01 1.5200000000000000e+00 9.5199999999999996e+00 0 0 0
21 1 4.8999999999999999e-01 2.4900000000000002e+00 4.8999999999999999e-01 0 0 0
22 1 5.2000000000000002e-01 2.5200000000000000e+00 1.5200000000000000e+00 0 0 0
23 1 5.5000000000000004e-01 2.5499999999999998e+00 2.5499999999999998e+00 0 0 0
24 1 4.6999999999999997e-01 2.4700000000000002e+00 3.4700000000000002e+00 0 0 0
25 1 5.0000000000000000e-01 2.5000000000000000e+00 4.5000000000000000e+00 0 0 0
26 1 5.3000000000000003e-01 2.5300000000000002e+00 5.5300000000000002e+00 0 0 0
27 1 4.4999999999999996e-01 2.4500000000000002e+00 6.4500000000000002e+00 0 0 0
28 1 4.7999999999999998e-01 2.4800000000000000e+00 7.4800000000000004e+00 0 0 0
29 1 5.1000000000000001e-01 2.5099999999999998e+00 8.5099999999999998e+00 0 0 0
30 1 5.4000000000000004e-01 2.5400000000000000e+00 9.5399999999999991e+00 0 0 0
31 1 5.1000000000000001e-01 3.5099999999999998e+00 5.1000000000000001e-01 0 0 0
32 1 5.4000000000000004e-01 3.5400000000000000e+00 1.5400000000000000e+00 0 0 0
33 1 4.5999999999999996e-01 3.4600000000000000e+00 2.4600000000000000e+00 0 0 0
34 1 4.8999999999999999e-01 3.4900000000000002e+00 3.4900000000000002e+00 0 0 0
35 1 5.2000000000000002e-01 3.5199999999999996e+00 4.5199999999999996e+00 0 0 0
36 1 5.5000000000000004e-01 3.5499999999999998e+00 5.5499999999999989e+00 0 0 0
37 1 4.6999999999999997e-01 3.4700000000000002e+00 6.4700000000000006e+00 0 0 0
38 1 5.0000000000000000e-01 3.5000000000000000e+00 7.5000000000000000e+00 0 0 0
39 1 5.3000000000000003e-01 3.5300000000000002e+00 8.5299999999999994e+00 0 0 0
40 1 4.4999999999999996e-01 3.4500000000000002e+00 9.4499999999999993e+00 0 0 0
41 1 5.3000000000000003e-01 4.5300000000000002e+00 5.3000000000000003e-01 0 0 0
42 1 4.4999999999999996e-01 4.4500000000000002e+00 1.4500000000000000e+00 0 0 0
43 1 4.7999999999999998e-01 4.4800000000000004e+00 2.4800000000000000e+00 0 0 0
44 1 5.1000000000000001e-01 4.5099999999999998e+00 3.5099999999999998e+00 0 0 0
45 1 5.4000000000000004e-01 4.5400000000000000e+00 4.5400000000000000e+00 0 0 0
46 1 4.5999999999999996e-01 4.4600000000000000e+00 5.4600000000000009e+00 0 0 0
47 1 4.8999999999999999e-01 4.4900000000000002e+00 6.4900000000000002e+00 0 0 0
48 1 5.2000000000000002e-01 4.5199999999999996e+00 7.5199999999999996e+00 0 0 0
49 1 5.5000000000000004e-01 4.5499999999999998e+00 8.5500000000000007e+00 0 0 0
50 1 4.6999999999999997e-01 4.4699999999999998e+00 9.4700000000000006e+00 0 0 0
51 1 5.5000000000000004e-01 5.5499999999999989e+00 5.5000000000000004e-01 0 0 0
52 1 4.6999999999999997e-01 5.4699999999999989e+00 1.4700000000000000e+00 0 0 0
53 1 5.0000000000000000e-01 5.5000000000000000e+00 2.5000000000000000e+00 0 0 0
54 1 5.3000000000000003e-01 5.5300000000000002e+00 3.5300000000000002e+00 0 0 0
55 1 4.4999999999999996e-01 5.4500000000000002e+00 4.4500000000000002e+00 0 0 0
56 1 4.7999999999999998e-01 5.4800000000000004e+00 5.4800000000000004e+00 0 0 0
57 1 5.1000000000000001e-01 5.5099999999999998e+00 6.5099999999999998e+00 0 0 0
58 1 5.4000000000000004e-01 5.5400000000000009e+00 7.5400000000000000e+00 0 0 0
59 1 4.5999999999999996e-01 5.4600000000000009e+00 8.4600000000000009e+00 0 0 0
60 1 4.8999999999999999e-01 5.4900000000000002e+00 9.4900000000000002e+00 0 0 0
61 1 4.5999999999999996e-01 6.4600000000000000e+00 4.5999999999999996e-01 0 0 0
62 1 4.8999999999999999e-01 6.4900000000000002e+00 1.4900000000000000e+00 0 0 0
63 1 5.2000000000000002e-01 6.5199999999999996e+00 2.5200000000000000e+00 0 0 0
64 1 5.5000000000000004e-01 6.5500000000000007e+00 3.5499999999999998e+00 0 0 0
65 1 4.6999999999999997e-01 6.4700000000000006e+00 4.4699999999999998e+00 0 0 0
66 1 5.0000000000000000e-01 6.5000000000000000e+00 5.5000000000000000e+00 0 0 0
67 1 5.3000000000000003e-01 6.5300000000000002e+00 6.5300000000000002e+00 0 0 0
68 1 4.4999999999999996e-01 6.4500000000000002e+00 7.4500000000000002e+00 0 0 0
69 1 4.7999999999999998e-01 6.4800000000000004e+00 8.4800000000000004e+00 0 0 0
70 1 5.1000000000000001e-01 6.5099999999999998e+00 9.5099999999999998e+00 0 0 0
71 1 4.7999999999999998e-01 7.4800000000000004e+00 4.7999999999999998e-01 0 0 0
72 1 5.1000000000000001e-01 7.5099999999999998e+00 1.5100000000000000e+00 0 0 0
73 1 5.4000000000000004e-01 7.5400000000000000e+00 2.5400000000000000e+00 0 0 0
74 1 4.5999999999999996e-01 7.4600000000000000e+00 3.4600000000000000e+00 0 0 0
75 1 4.8999999999999999e-01 7.4900000000000002e+00 4.4900000000000002e+00 0 0 0
76 1 5.2000000000000002e-01 7.5199999999999996e+00 5.5199999999999996e+00 0 0 0
77 1 5.5000000000000004e-01 7.5499999999999998e+00 6.5500000000000007e+00 0 0 0
78 1 4.6999999999999997e-01 7.4699999999999998e+00 7.4699999999999998e+00 0 0 0
79 1 5.0000000000000000e-01 7.5000000000000000e+00 8.5000000000000000e+00 0 0 0
80 1 5.3000000000000003e-01 7.5300000000000002e+00 9.5299999999999994e+00 0 0 0
81 1 5.0000000000000000e-01 8.5000000000000000e+00 5.0000000000000000e-01 0 0 0
82 1 5.3000000000000003e-01 8.5299999999999994e+00 1.5300000000000000e+00 0 0 0
83 1 4.4999999999999996e-01 8.4499999999999993e+00 2.4500000000000002e+00 0 0 0
84 1 4.7999999999999998e-01 8.4800000000000004e+00 3.4799999999999995e+00 0 0 0
85 1 5.1000000000000001e-01 8.5099999999999998e+00 4.5099999999999998e+00 0 0 0
86 1 5.4000000000000004e-01 8.5399999999999991e+00 5.5400000000000009e+00 0 0 0
87 1 4.5999999999999996e-01 8.4600000000000009e+00 6.4600000000000000e+00 0 0 0
88 1 4.8999999999999999e-01 8.4900000000000002e+00 7.4900000000000002e+00 0 0 0
89 1 5.2000000000000002e-01 8.5199999999999996e+00 8.5199999999999996e+00 0 0 0
90 1 5.5000000000000004e-01 8.5500000000000007e+00 9.5500000000000007e+00 0 0 0
91 1 5.2000000000000002e-01 9.5199999999999996e+00 5.2000000000000002e-01 0 0 0
92 1 5.5000000000000004e-01 9.5500000000000007e+00 1.5500000000000000e+00 0 0 0
93 1 4.6999999999999997e-01 9.4700000000000006e+00 2.4700000000000002e+00 0 0 0
94 1 5.0000000000000000e-01 9.5000000000000000e+00 3.5000000000000000e+00 0 0 0
95 1 5.3000000000000003e-01 9.5299999999999994e+00 4.5300000000000002e+00 0 0 0
96 1 4.4999999999999996e-01 9.4499999999999993e+00 5.4500000000000002e+00 0 0 0
97 1 4.7999999999999998e-01 9.4800000000000004e+00 6.4800000000000004e+00 0 0 0
98 1 5.1000000000000001e-01 9.5099999999999998e+00 7.5099999999999998e+00 0 0 0
99 1 5.4000000000000004e-01 9.5399999999999991e+00 8.5399999999999991e+00 0 0 0
100 1 4.5999999999999996e-01 9.4600000000000009e+00 9.4600000000000009e+00 0 0 0
101 1 1.4600000000000000e+00 4.5999999999999996e-01 4.5999999999999996e-01 0 0 0
102 1 1.4900000000000000e+00 4.8999999999999999e-01 1.4900000000000000e+00 0 0 0
103 1 1.5200000000000000e+00 5.2000000000000002e-01 2.5200000000000000e+00 0 0 0
104 1 1.5500000000000000e+00 5.5000000000000004e-01 3.5499999999999998e+00 0 0 0
105 1 1.4700000000000000e+00 4.6999999999999997e-01 4.4699999999999998e+00 0 0 0
106 1 1.5000000000000000e+00 5.0000000000000000e-01 5.5000000000000000e+00 0 0 0
107 1 1.5300000000000000e+00 5.3000000000000003e-01 6.5300000000000002e+00 0 0 0
108 1 1.4500000000000000e+00 4.4999999999999996e-01 7.4500000000000002e+00 0 0 0
109 1 1.4800000000000000e+00 4.7999999999999998e-01 8.4800000000000004e+00 0 0 0
110 1 1.5100000000000000e+00 5.1000000000000001e-01 9.5099999999999998e+00 0 0 0
111 1 1.4800000000000000e+00 1.4800000000000000e+00 4.7999999999999998e-01 0 0 0
112 1 1.5100000000000000e+00 1.5100000000000000e+00 1.5100000000000000e+00 0 0 0
113 1 1.5400000000000000e+00 1.5400000000000000e+00 2.5400000000000000e+00 0 0 0
114 1 1.4600000000000000e+00 1.4600000000000000e+00 3.4600000000000000e+00 0 0 0
115 1 1.4900000000000000e+00 1.4900000000000000e+00 4.4900000000000002e+00 0 0 0
116 1 1.5200000000000000e+00 1.5200000000000000e+00 5.5199999999999996e+00 0 0 0
117 1 1.5500000000000000e+00 1.5500000000000000e+00 6.5500000000000007e+00 0 0 0
118 1 1.4700000000000000e+00 1.4700000000000000e+00 7.4699999999999998e+00 0 0 0
119 1 1.5000000000000000e+00 1.5000000000000000e+00 8.5000000000000000e+00 0 0 0
120 1 1.5300000000000000e+00 1.5300000000000000e+00 9.5299999999999994e+00 0 0 0
121 1 1.5000000000000000e+00 2.5000000000000000e+00 5.0000000000000000e-01 0 0 0
122 1 1.5300000000000000e+00 2.5300000000000002e+00 1.5300000000000000e+00 0 0 0
123 1 1.4500000000000000e+00 2.4500000000000002e+00 2.4500000000000002e+00 0 0 0
124 1 1.4800000000000000e+00 2.4800000000000000e+00 3.4799999999999995e+00 0 0 0
125 1 1.5100000000000000e+00 2.5099999999999998e+00 4.5099999999999998e+00 0 0 0
126 1 1.5400000000000000e+00 2.5400000000000000e+00 5.5400000000000009e+00 0 0 0
127 1 1.4600000000000000e+00 2.4600000000000000e+00 6.4600000000000000e+00 0 0 0
128 1 1.4900000000000000e+00 2.4900000000000002e+00 7.4900000000000002e+00 0 0 0
129 1 1.5200000000000000e+00 2.5200000000000000e+00 8.5199999999999996e+00 0 0 0
130 1 1.5500000000000000e+00 2.5499999999999998e+00 9.5500000000000007e+00 0 0 0
131 1 1.5200000000000000e+00 3.5199999999999996e+00 5.2000000000000002e-01 0 0 0
132 1 1.5500000000000000e+00 3.5499999999999998e+00 1.5500000000000000e+00 0 0 0
133 1 1.4700000000000000e+00 3.4700000000000002e+00 2.4700000000000002e+00 0 0 0
134 1 1.5000000000000000e+00 3.5000000000000000e+00 3.5000000000000000e+00 0 0 0
135 1 1.5300000000000000e+00 3.5300000000000002e+00 4.5300000000000002e+00 0 0 0
136 1 1.4500000000000000e+00 3.4500000000000002e+00 5.4500000000000002e+00 0 0 0
137 1 1.4800000000000000e+00 3.4799999999999995e+00 6.4800000000000004e+00 0 0 0
138 1 1.5100000000000000e+00 3.5099999999999998e+00 7.5099999999999998e+00 0 0 0
139 1 1.5400000000000000e+00 3.5400000000000000e+00 8.5399999999999991e+00 0 0 0
140 1 1.4600000000000000e+00 3.4600000000000000e+00 9.4600000000000009e+00 0 0 0
141 1 1.5400000000000000e+00 4.5400000000000000e+00 5.4000000000000004e-01 0 0 0
142 1 1.4600000000000000e+00 4.4600000000000000e+00 1.4600000000000000e+00 0 0 0
143 1 1.4900000000000000e+00 4.4900000000000002e+00 2.4900000000000002e+00 0 0 0
144 1 1.5200000000000000e+00 4.5199999999999996e+00 3.5199999999999996e+00 0 0 0
145 1 1.5500000000000000e+00 4.5499999999999998e+00 4.5499999999999998e+00 0 0 0
146 1 1.4700000000000000e+00 4.4699999999999998e+00 5.4699999999999989e+00 0 0 0
147 1 1.5000000000000000e+00 4.5000000000000000e+00 6.5000000000000000e+00 0 0 0
148 1 1.5300000000000000e+00 4.5300000000000002e+00 7.5300000000000002e+00 0 0 0
149 1 1.4500000000000000e+00 4.4500000000000002e+00 8.4499999999999993e+00 0 0 0
150 1 1.4800000000000000e+00 4.4800000000000004e+00 9.4800000000000004e+00 0 0 0
151 1 1.4500000000000000e+00 5.4500000000000002e+00 4.4999999999999996e-01 0 0 0
152 1 1.4800000000000000e+00 5.4800000000000004e+00 1.4800000000000000e+00 0 0 0
153 1 1.5100000000000000e+00 5.5099999999999998e+00 2.5099999999999998e+00 0 0 0
154 1 1.5400000000000000e+00 5.5400000000000009e+00 3.5400000000000000e+00 0 0 0
155 1 1.4600000000000000e+00 5.4600000000000009e+00 4.4600000000000000e+00 0 0 0
156 1 1.4900000000000000e+00 5.4900000000000002e+00 5.4900000000000002e+00 0 0 0
157 1 1.5200000000000000e+00 5.5199999999999996e+00 6.5199999999999996e+00 0 0 0
158 1 1.5500000000000000e+00 5.5499999999999989e+00 7.5499999999999998e+00 0 0 0
159 1 1.4700000000000000e+00 5.4699999999999989e+00 8.4700000000000006e+00 0 0 0
160 1 1.5000000000000000e+00 5.5000000000000000e+00 9.5000000000000000e+00 0 0 0
161 1 1.4700000000000000e+00 6.4700000000000006e+00 4.6999999999999997e-01 0 0 0
162 1 1.5000000000000000e+00 6.5000000000000000e+00 1.5000000000000000e+00 0 0 0
163 1 1.5300000000000000e+00 6.5300000000000002e+00 2.5300000000000002e+00 0 0 0
164 1 1.4500000000000000e+00 6.4500000000000002e+00 3.4500000000000002e+00 0 0 0
165 1 1.4800000000000000e+00 6.4800000000000004e+00 4.4800000000000004e+00 0 0 0
166 1 1.5100000000000000e+00 6.5099999999999998e+00 5.5099999999999998e+00 0 0 0
167 1 1.5400000000000000e+00 6.5400000000000000e+00 6.5400000000000000e+00 0 0 0
168 1 1.4600000000000000e+00 6.4600000000000000e+00 7.4600000000000000e+00 0 0 0
169 1 1.4900000000000000e+00 6.4900000000000002e+00 8.4900000000000002e+00 0 0 0
170 1 1.5200000000000000e+00 6.5199999999999996e+00 9.5199999999999996e+00 0 0 0
171 1 1.4900000000000000e+00 7.4900000000000002e+00 4.8999999999999999e-01 0 0 0
172 1 1.5200000000000000e+00 7.5199999999999996e+00 1.5200000000000000e+00 0 0 0
173 1 1.5500000000000000e+00 7.5499999999999998e+00 2.5499999999999998e+00 0 0 0
174 1 1.4700000000000000e+00 7.4699999999999998e+00 3.4700000000000002e+00 0 0 0
175 1 1.5000000000000000e+00 7.5000000000000000e+00 4.5000000000000000e+00 0 0 0
176 1 1.5300000000000000e+00 7.5300000000000002e+00 5.5300000000000002e+00 0 0 0
177 1 1.4500000000000000e+00 7.4500000000000002e+00 6.4500000000000002e+00 0 0 0
178 1 1.4800000000000000e+00 7.4800000000000004e+00 7.4800000000000004e+00 0 0 0
179 1 1.5100000000000000e+00 7.5099999999999998e+00 8.5099999999999998e+00 0 0 0
180 1 1.5400000000000000e+00 7.5400000000000000e+00 9.5399999999999991e+00 0 0 0
181 1 1.5100000000000000e+00 8.5099999999999998e+00 5.1000000000000001e-01 0 0 0
182 1 1.5400000000000000e+00 8.5399999999999991e+00 1.5400000000000000e+00 0 0 0
183 1 1.4600000000000000e+00 8.4600000000000009e+00 2.4600000000000000e+00 0 0 0
184 1 1.4900000000000000e+00 8.4900000000000002e+00 3.4900000000000002e+00 0 0 0
185 1 1.5200000000000000e+00 8.5199999999999996e+00 4.5199999999999996e+00 0 0 0
186 1 1.5500000000000000e+00 8.5500000000000007e+00 5.5499999999999989e+00 0 0 0
187 1 1.4700000000000000e+00 8.4700000000000006e+00 6.4700000000000006e+00 0 0 0
188 1 1.5000000000000000e+00 8.5000000000000000e+00 7.5000000000000000e+00 0 0 0
189 1 1.5300000000000000e+00 8.5299999999999994e+00 8.5299999999999994e+00 0 0 0
190 1 1.4500000000000000e+00 8.4499999999999993e+00 9.4499999999999993e+00 0 0 0
191 1 1.5300000000000000e+00 9.5299999999999994e+00 5.3000000000000003e-01 0 0 0
192 1 1.4500000000000000e+00 9.4499999999999993e+00 1.4500000000000000e+00 0 0 0
193 1 1.4800000000000000e+00 9.4800000000000004e+00 2.4800000000000000e+00 0 0 0
194 1 1.5100000000000000e+00 9.5099999999999998e+00 3.5099999999999998e+00 0 0 0
195 1 1.5400000000000000e+00 9.5399999999999991e+00 4.5400000000000000e+00 0 0 0
196 1 1.4600000000000000e+00 9.4600000000000009e+00 5.4600000000000009e+00 0 0 0
197 1 1.4900000000000000e+00 9.4900000000000002e+00 6.4900000000000002e+00 0 0 0
198 1 1.5200000000000000e+00 9.5199999999999996e+00 7.5199999999999996e+00 0 0 0
199 1 1.5500000000000000e+00 9.5500000000000007e+00 8.5500000000000007e+00 0 0 0
200 1 1.4700000000000000e+00 9.4700000000000006e+00 9.4700000000000006e+00 0 0 0
201 1 2.4700000000000002e+00 4.6999999999999997e-01 4.6999999999999997e-01 0 0 0
202 1 2.5000000000000000e+00 5.0000000000000000e-01 1.5000000000000000e+00 0 0 0
203 1 2.5300000000000002e+00 5.3000000000000003e-01 2.5300000000000002e+00 0 0 0
204 1 2.4500000000000002e+00 4.4999999999999996e-01 3.4500000000000002e+00 0 0 0
205 1 2.4800000000000000e+00 4.7999999999999998e-01 4.4800000000000004e+00 0 0 0
206 1 2.5099999999999998e+00 5.1000000000000001e-01 5.5099999999999998e+00 0 0 0
207 1 2.5400000000000000e+00 5.4000000000000004e-01 6.5400000000000000e+00 0 0 0
208 1 2.4600000000000000e+00 4.5999999999999996e-01 7.4600000000000000e+00 0 0 0
209 1 2.4900000000000002e+00 4.8999999999999999e-01 8.4900000000000002e+00 0 0 0
210 1 2.5200000000000000e+00 5.2000000000000002e-01 9.5199999999999996e+00 0 0 0
211 1 2.4900000000000002e+00 1.4900000000000000e+00 4.8999999999999999e-01 0 0 0
212 1 2.5200000000000000e+00 1.5200000000000000e+00 1.5200000000000000e+00 0 0 0
213 1 2.5499999999999998e+00 1.5500000000000000e+00 2.5499999999999998e+00 0 0 0
214 1 2.4700000000000002e+00 1.4700000000000000e+00 3.4700000000000002e+00 0 0 0
215 1 2.5000000000000000e+00 1.5000000000000000e+00 4.5000000000000000e+00 0 0 0
216 1 2.5300000000000002e+00 1.5300000000000000e+00 5.5300000000000002e+00 0 0 0
217 1 2.4500000000000002e+00 1.4500000000000000e+00 6.4500000000000002e+00 0 0 0
218 1 2.4800000000000000e+00 1.4800000000000000e+00 7.4800000000000004e+00 0 0 0
219 1 2.5099999999999998e+00 1.5100000000000000e+00 8.5099999999999998e+00 0 0 0
220 1 2.5400000000000000e+00 1.5400000000000000e+00 9.5399999999999991e+00 0 0 0
221 1 2.5099999999999998e+00 2.5099999999999998e+00 5.1000000000000001e-01 0 0 0
222 1 2.5400000000000000e+00 2.5400000000000000e+00 1.5400000000000000e+00 0 0 0
223 1 2.4600000000000000e+00 2.4600000000000000e+00 2.4600000000000000e+00 0 0 0
224 1 2.4900000000000002e+00 2.4900000000000002e+00 3.4900000000000002e+00 0 0 0
225 1 2.5200000000000000e+00 2.5200000000000000e+00 4.5199999999999996e+00 0 0 0
226 1 2.5499999999999998e+00 2.5499999999999998e+00 5.5499999999999989e+00 0 0 0
227 1 2.4700000000000002e+00 2.4700000000000002e+00 6.4700000000000006e+00 0 0 0
228 1 2.5000000000000000e+00 2.5000000000000000e+00 7.5000000000000000e+00 0 0 0
229 1 2.5300000000000002e+00 2.5300000000000002e+00 8.5299999999999994e+00 0 0 0
230 1 2.4500000000000002e+00 2.4500000000000002e+00 9.4499999999999993e+00 0 0 0
231 1 2.5300000000000002e+00 3.5300000000000002e+00 5.3000000000000003e-01 0 0 0
232 1 2.4500000000000002e+00 3.4500000000000002e+00 1.4500000000000000e+00 0 0 0
233 1 2.4800000000000000e+00 3.4799999999999995e+00 2.4800000000000000e+00 0 0 0
234 1 2.5099999999999998e+00 3.5099999999999998e+00 3.5099999999999998e+00 0 0 0
235 1 2.5400000000000000e+00 3.5400000000000000e+00 4.5400000000000000e+00 0 0 0
236 1 2.4600000000000000e+00 3.4600000000000000e+00 5.4600000000000009e+00 0 0 0
237 1 2.4900000000000002e+00 3.4900000000000002e+00 6.4900000000000002e+00 0 0 0
238 1 2.5200000000000000e+00 3.5199999999999996e+00 7.5199999999999996e+00 0 0 0
239 1 2.5499999999999998e+00 3.5499999999999998e+00 8.5500000000000007e+00 0 0 0
240 1 2.4700000000000002e+00 3.4700000000000002e+00 9.4700000000000006e+00 0 0 0
241 1 2.5499999999999998e+00 4.5499999999999998e+00 5.5000000000000004e-01 0 0 0
242 1 2.4700000000000002e+00 4.4699999999999998e+00 1.4700000000000000e+00 0 0 0
243 1 2.5000000000000000e+00 4.5000000000000000e+00 2.5000000000000000e+00 0 0 0
244 1 2.5300000000000002e+00 4.5300000000000002e+00 3.5300000000000002e+00 0 0 0
245 1 2.4500000000000002e+00 4.4500000000000002e+00 4.4500000000000002e+00 0 0 0
246 1 2.4800000000000000e+00 4.4800000000000004e+00 5.4800000000000004e+00 0 0 0
247 1 2.5099999999999998e+00 4.5099999999999998e+00 6.5099999999999998e+00 0 0 0
248 1 2.5400000000000000e+00 4.5400000000000000e+00 7.5400000000000000e+00 0 0 0
249 1 2.4600000000000000e+00 4.4600000000000000e+00 8.4600000000000009e+00 0 0 0
250 1 2.4900000000000002e+00 4.4900000000000002e+00 9.4900000000000002e+00 0 0 0
251 1 2.4600000000000000e+00 5.4600000000000009e+00 4.5999999999999996e-01 0 0 0
252 1 2.4900000000000002e+00 5.4900000000000002e+00 1.4900000000000000e+00 0 0 0
253 1 2.5200000000000000e+00 5.5199999999999996e+00 2.5200000000000000e+00 0 0 0
254 1 2.5499999999999998e+00 5.5499999999999989e+00 3.5499999999999998e+00 0 0 0
255 1 2.4700000000000002e+00 5.4699999999999989e+00 4.4699999999999998e+00 0 0 0
256 1 2.5000000000000000e+00 5.5000000000000000e+00 5.5000000000000000e+00 0 0 0
257 1 2.5300000000000002e+00 5.5300000000000002e+00 6.5300000000000002e+00 0 0 0
258 1 2.4500000000000002e+00 5.4500000000000002e+00 7.4500000000000002e+00 0 0 0
259 1 2.4800000000000000e+00 5.4800000000000004e+00 8.4800000000000004e+00 0 0 0
260 1 2.5099999999999998e+00 5.5099999999999998e+00 9.5099999999999998e+00 0 0 0
261 1 2.4800000000000000e+00 6.4800000000000004e+00 4.7999999999999998e-01 0 0 0
262 1 2.5099999999999998e+00 6.5099999999999998e+00 1.5100000000000000e+00 0 0 0
263 1 2.5400000000000000e+00 6.5400000000000000e+00 2.5400000000000000e+00 0 0 0
264 1 2.4600000000000000e+00 6.4600000000000000e+00 3.4600000000000000e+00 0 0 0
265 1 2.4900000000000002e+00 6.4900000000000002e+00 4.4900000000000002e+00 0 0 0
266 1 2.5200000000000000e+00 6.5199999999999996e+00 5.5199999999999996e+00 0 0 0
267 1 2.5499999999999998e+00 6.5500000000000007e+00 6.5500000000000007e+00 0 0 0
268 1 2.4700000000000002e+00 6.4700000000000006e+00 7.4699999999999998e+00 0 0 0
269 1 2.5000000000000000e+00 6.5000000000000000e+00 8.5000000000000000e+00 0 0 0
270 1 2.5300000000000002e+00 6.5300000000000002e+00 9.5299999999999994e+00 0 0 0
271 1 2.5000000000000000e+00 7.5000000000000000e+00 5.0000000000000000e-01 0 0 0
272 1 2.5300000000000002e+00 7.5300000000000002e+00 1.5300000000000000e+00 0 0 0
273 1 2.4500000000000002e+00 7.4500000000000002e+00 2.4500000000000002e+00 0 0 0
274 1 2.4800000000000000e+00 7.4800000000000004e+00 3.4799999999999995e+00 0 0 0
275 1 2.5099999999999998e+00 7.5099999999999998e+00 4.5099999999999998e+00 0 0 0
276 1 2.5400000000000000e+00 7.5400000000000000e+00 5.5400000000000009e+00 0 0 0
277 1 2.4600000000000000e+00 7.4600000000000000e+00 6.4600000000000000e+00 0 0 0
278 1 2.4900000000000002e+00 7.4900000000000002e+00 7.4900000000000002e+00 0 0 0
279 1 2.5200000000000000e+00 7.5199999999999996e+00 8.5199999999999996e+00 0 0 0
280 1 2.5499999999999998e+00 7.5499999999999998e+00 9.5500000000000007e+00 0 0 0
281 1 2.5200000000000000e+00 8.5199999999999996e+00 5.2000000000000002e-01 0 0 0
282 1 2.5499999999999998e+00 8.5500000000000007e+00 1.5500000000000000e+00 0 0 0
283 1 2.4700000000000002e+00 8.4700000000000006e+00 2.4700000000000002e+00 0 0 0
284 1 2.5000000000000000e+00 8.5000000000000000e+00 3.5000000000000000e+00 0 0 0
285 1 2.5300000000000002e+00 8.5299999999999994e+00 4.5300000000000002e+00 0 0 0
286 1 2.4500000000000002e+00 8.4499999999999993e+00 5.4500000000000002e+00 0 0 0
287 1 2.4800000000000000e+00 8.4800000000000004e+00 6.4800000000000004e+00 0 0 0
288 1 2.5099999999999998e+00 8.5099999999999998e+00 7.5099999999999998e+00 0 0 0
289 1 2.5400000000000000e+00 8.5399999999999991e+00 8.5399999999999991e+00 0 0 0
290 1 2.4600000000000000e+00 8.4600000000000009e+00 9.4600000000000009e+00 0 0 0
291 1 2.5400000000000000e+00 9.5399999999999991e+00 5.4000000000000004e-01 0 0 0
292 1 2.4600000000000000e+00 9.4600000000000009e+00 1.4600000000000000e+00 0 0 0
293 1 2.4900000000000002e+00 9.4900000000000002e+00 2.4900000000000002e+00 0 0 0
294 1 2.5200000000000000e+00 9.5199999999999996e+00 3.5199999999999996e+00 0 0 0
295 1 2.5499999999999998e+00 9.5500000000000007e+00 4.5499999999999998e+00 0 0 0
296 1 2.4700000000000002e+00 9.4700000000000006e+00 5.4699999999999989e+00 0 0 0
297 1 2.5000000000000000e+00 9.5000000000000000e+00 6.5000000000000000e+00 0 0 0
298 1 2.5300000000000002e+00 9.5299999999999994e+00 7.5300000000000002e+00 0 0 0
299 1 2.4500000000000002e+00 9.4499999999999993e+00 8.4499999999999993e+00 0 0 0
300 1 2.4800000000000000e+00 9.4800000000000004e+00 9.4800000000000004e+00 0 0 0
301 1 3.4799999999999995e+00 4.7999999999999998e-01 4.7999999999999998e-01 0 0 0
302 1 3.5099999999999998e+00 5.1000000000000001e-01 1.5100000000000000e+00 0 0 0
303 1 3.5400000000000000e+00 5.4000000000000004e-01 2.5400000000000000e+00 0 0 0
304 1 3.4600000000000000e+00 4.5999999999999996e-01 3.4600000000000000e+00 0 0 0
305 1 3.4900000000000002e+00 4.8999999999999999e-01 4.4900000000000002e+00 0 0 0
306 1 3.5199999999999996e+00 5.2000000000000002e-01 5.5199999999999996e+00 0 0 0
307 1 3.5499999999999998e+00 5.5000000000000004e-01 6.5500000000000007e+00 0 0 0
308 1 3.4700000000000002e+00 4.6999999999999997e-01 7.4699999999999998e+00 0 0 0
309 1 3.5000000000000000e+00 5.0000000000000000e-01 8.5000000000000000e+00 0 0 0
310 1 3.5300000000000002e+00 5.3000000000000003e-01 9.5299999999999994e+00 0 0 0
311 1 3.5000000000000000e+00 1.5000000000000000e+00 5.0000000000000000e-01 0 0 0
312 1 3.5300000000000002e+00 1.5300000000000000e+00 1.5300000000000000e+00 0 0 0
313 1 3.4500000000000002e+00 1.4500000000000000e+00 2.4500000000000002e+00 0 0 0
314 1 3.4799999999999995e+00 1.4800000000000000e+00 3.4799999999999995e+00 0 0 0
315 1 3.5099999999999998e+00 1.5100000000000000e+00 4.5099999999999998e+00 0 0 0
316 1 3.5400000000000000e+00 1.5400000000000000e+00 5.5400000000000009e+00 0 0 0
317 1 3.4600000000000000e+00 1.4600000000000000e+00 6.4600000000000000e+00 0 0 0
318 1 3.4900000000000002e+00 1.4900000000000000e+00 7.4900000000000002e+00 0 0 0
319 1 3.5199999999999996e+00 1.5200000000000000e+00 8.5199999999999996e+00 0 0 0
320 1 3.5499999999999998e+00 1.5500000000000000e+00 9.5500000000000007e+00 0 0 0
321 1 3.5199999999999996e+00 2.5200000000000000e+00 5.2000000000000002e-01 0 0 0
322 1 3.5499999999999998e+00 2.5499999999999998e+00 1.5500000000000000e+00 0 0 0
323 1 3.4700000000000002e+00 2.4700000000000002e+00 2.4700000000000002e+00 0 0 0
324 1 3.5000000000000000e+00 2.5000000000000000e+00 3.5000000000000000e+00 0 0 0
325 1 3.5300000000000002e+00 2.5300000000000002e+00 4.5300000000000002e+00 0 0 0
326 1 3.4500000000000002e+00 2.4500000000000002e+00 5.4500000000000002e+00 0 0 0
327 1 3.4799999999999995e+00 2.4800000000000000e+00 6.4800000000000004e+00 0 0 0
328 1 3.5099999999999998e+00 2.5099999999999998e+00 7.5099999999999998e+00 0 0 0
329 1 3.5400000000000000e+00 2.5400000000000000e+00 8.5399999999999991e+00 0 0 0
330 1 3.4600000000000000e+00 2.4600000000000000e+00 9.4600000000000009e+00 0 0 0
331 1 3.5400000000000000e+00 3.5400000000000000e+00 5.4000000000000004e-01 0 0 0
332 1 3.4600000000000000e+00 3.4600000000000000e+00 1.4600000000000000e+00 0 0 0
333 1 3.4900000000000002e+00 3.4900000000000002e+00 2.4900000000000002e+00 0 0 0
334 1 3.5199999999999996e+00 3.5199999999999996e+00 3.5199999999999996e+00 0 0 0
335 1 3.5499999999999998e+00 3.5499999999999998e+00 4.5499999999999998e+00 0 0 0
336 1 3.4700000000000002e+00 3.4700000000000002e+00 5.4699999999999989e+00 0 0 0
337 1 3.5000000000000000e+00 3.5000000000000000e+00 6.5000000000000000e+00 0 0 0
338 1 3.5300000000000002e+00 3.5300000000000002e+00 7.5300000000000002e+00 0 0 0
339 1 3.4500000000000002e+00 3.4500000000000002e+00 8.4499999999999993e+00 0 0 0
340 1 3.4799999999999995e+00 3.4799999999999995e+00 9.4800000000000004e+00 0 0 0
341 1 3.4500000000000002e+00 4.4500000000000002e+00 4.4999999999999996e-01 0 0 0
342 1 3.4799999999999995e+00 4.4800000000000004e+00 1.4800000000000000e+00 0 0 0
343 1 3.5099999999999998e+00 4.5099999999999998e+00 2.5099999999999998e+00 0 0 0
344 1 3.5400000000000000e+00 4.5400000000000000e+00 3.5400000000000000e+00 0 0 0
345 1 3.4600000000000000e+00 4.4600000000000000e+00 4.4600000000000000e+00 0 0 0
346 1 3.4900000000000002e+00 4.4900000000000002e+00 5.4900000000000002e+00 0 0 0
347 1 3.5199999999999996e+00 4.5199999999999996e+00 6.5199999999999996e+00 0 0 0
348 1 3.5499999999999998e+00 4.5499999999999998e+00 7.5499999999999998e+00 0 0 0
349 1 3.4700000000000002e+00 4.4699999999999998e+00 8.4700000000000006e+00 0 0 0
350 1 3.5000000000000000e+00 4.5000000000000000e+00 9.5000000000000000e+00 0 0 0
351 1 3.4700000000000002e+00 5.4699999999999989e+00 4.6999999999999997e-01 0 0 0
352 1 3.5000000000000000e+00 5.5000000000000000e+00 1.5000000000000000e+00 0 0 0
353 1 3.5300000000000002e+00 5.5300000000000002e+00 2.5300000000000002e+00 0 0 0
354 1 3.4500000000000002e+00 5.4500000000000002e+00 3.4500000000000002e+00 0 0 0
355 1 3.4799999999999995e+00 5.4800000000000004e+00 4.4800000000000004e+00 0 0 0
356 1 3.5099999999999998e+00 5.5099999999999998e+00 5.5099999999999998e+00 0 0 0
357 1 3.5400000000000000e+00 5.5400000000000009e+00 6.5400000000000000e+00 0 0 0
358 1 3.4600000000000000e+00 5.4600000000000009e+00 7.4600000000000000e+00 0 0 0
359 1 3.4900000000000002e+00 5.4900000000000002e+00 8.4900000000000002e+00 0 0 0
360 1 3.5199999999999996e+00 5.5199999999999996e+00 9.5199999999999996e+00 0 0 0
361 1 3.4900000000000002e+00 6.4900000000000002e+00 4.8999999999999999e-01 0 0 0
362 1 3.5199999999999996e+00 6.5199999999999996e+00 1.5200000000000000e+00 0 0 0
363 1 3.5499999999999998e+00 6.5500000000000007e+00 2.5499999999999998e+00 0 0 0
364 1 3.4700000000000002e+00 6.4700000000000006e+00 3.4700000000000002e+00 0 0 0
365 1 3.5000000000000000e+00 6.5000000000000000e+00 4.5000000000000000e+00 0 0 0
366 1 3.5300000000000002e+00 6.5300000000000002e+00 5.5300000000000002e+00 0 0 0
367 1 3.4500000000000002e+00 6.4500000000000002e+00 6.4500000000000002e+00 0 0 0
368 1 3.4799999999999995e+00 6.4800000000000004e+00 7.4800000000000004e+00 0 0 0