LAMMPS

40000 atoms
40000 bonds
40000 angles
    0 dihedrals
    0 impropers

    1 atom types
    1 bond types
    1 angle types
    0 dihedral types
    0 improper types

0.0000 36.1033 xlo xhi
0.0000 36.1033 ylo yhi
0.0000 36.1033 zlo zhi

Atoms

1 1 1 128.369 -22.407 44.769
2 1 1 128.136 -21.668 44.275
3 1 1 128.095 -20.684 44.133
4 1 1 128.344 -19.851 43.701
5 1 1 127.814 -19.207 43.264
6 1 1 127.381 -19.982 43.457
7 1 1 126.567 -20.235 43.037
8 1 1 125.965 -20.927 42.702
9 1 1 126.315 -20.596 41.801
10 1 1 125.350 -20.487 41.699
11 1 1 125.330 -21.429 41.570
12 1 1 126.137 -21.815 41.418
13 1 1 127.070 -21.706 41.330
14 1 1 127.689 -21.689 42.047
15 1 1 128.553 -22.085 41.753
16 1 1 128.062 -22.719 41.192
17 1 1 128.900 -23.129 40.967
18 1 1 129.711 -22.728 41.240
19 1 1 130.618 -22.467 41.471
20 1 1 131.298 -22.230 42.071
21 1 1 130.883 -22.497 42.932
22 1 1 129.893 -22.593 42.707
23 1 1 129.218 -23.083 42.225
24 1 1 128.453 -23.697 42.257
25 1 1 129.215 -24.246 42.102
26 1 1 129.070 -25.010 41.494
27 1 1 129.443 -25.416 40.743
28 1 1 128.917 -24.853 40.147
29 1 1 128.346 -25.161 40.817
30 1 1 127.794 -25.936 40.684
31 1 1 127.680 -26.791 40.344
32 1 1 127.781 -27.736 40.090
33 1 1 127.788 -28.511 40.678
34 1 1 128.676 -28.598 40.963
35 1 1 129.103 -29.059 40.268
36 1 1 129.658 -29.493 39.603
37 1 1 130.497 -29.088 39.350
38 1 1 130.529 -28.375 39.910
39 1 1 130.324 -27.985 39.052
40 1 1 131.172 -28.255 38.735
41 1 1 131.172 -27.480 39.250
42 1 1 132.022 -27.610 39.665
43 1 1 132.940 -27.502 39.571
44 1 1 133.874 -27.747 39.725
45 1 1 134.765 -27.843 39.435
46 1 1 135.449 -27.184 39.487
47 1 1 134.609 -26.815 39.130
48 1 1 133.637 -26.853 38.811
49 1 1 133.600 -27.839 38.810
50 1 1 134.281 -27.905 38.174
51 1 1 134.593 -27.608 37.268
52 1 1 134.645 -26.970 36.557
53 1 1 134.292 -26.186 37.005
54 1 1 134.326 -26.601 37.863
55 1 1 134.203 -25.930 38.525
56 1 1 134.585 -25.354 39.147
57 1 1 134.692 -25.347 40.118
58 1 1 135.513 -25.108 39.724
59 1 1 135.801 -25.959 39.289
60 1 1 136.225 -26.763 38.902
61 1 1 136.543 -27.524 39.417
62 1 1 136.207 -28.433 39.823
63 1 1 135.323 -28.521 40.202
64 1 1 134.376 -28.668 40.269
65 1 1 134.645 -27.731 40.383
66 1 1 133.826 -28.042 40.776
67 1 1 132.918 -28.150 41.162
68 1 1 132.052 -27.874 40.826
69 1 1 131.303 -27.406 40.518
70 1 1 130.289 -27.264 40.492
71 1 1 130.628 -26.338 40.636
72 1 1 129.819 -26.211 40.123
73 1 1 130.061 -26.913 39.510
74 1 1 130.608 -26.200 39.278
75 1 1 130.434 -25.287 39.036
76 1 1 131.106 -24.619 39.221
77 1 1 131.239 -25.025 38.390
78 1 1 131.600 -25.588 39.040
79 1 1 131.986 -24.908 39.627
80 1 1 132.559 -25.540 40.014
81 1 1 133.101 -24.916 40.513
82 1 1 133.429 -25.886 40.411
83 1 1 133.779 -26.029 39.482
84 1 1 133.094 -25.770 38.852
85 1 1 132.535 -25.082 38.726
86 1 1 132.234 -25.584 37.984
87 1 1 132.080 -26.561 37.821
88 1 1 132.135 -26.818 36.876
89 1 1 132.342 -26.783 35.921
90 1 1 132.221 -25.869 36.237
91 1 1 132.774 -25.160 36.377
92 1 1 132.747 -24.699 37.257
93 1 1 132.679 -24.249 38.084
94 1 1 131.930 -24.151 38.770
95 1 1 131.803 -23.307 39.129
96 1 1 131.574 -22.543 39.743
97 1 1 131.481 -21.929 39.035
98 1 1 131.558 -21.347 38.316
99 1 1 131.649 -21.069 37.420
100 1 1 132.495 -21.094 37.879
101 1 1 133.124 -21.358 38.606
102 1 1 133.099 -22.307 38.602
103 1 1 132.524 -22.532 37.825
104 1 1 132.024 -23.347 37.915
105 1 1 131.541 -24.225 37.708
106 1 1 130.651 -24.726 37.590
107 1 1 129.923 -24.936 37.019
108 1 1 129.985 -25.657 36.441
109 1 1 130.285 -26.212 35.707
110 1 1 129.931 -27.074 35.819
111 1 1 130.222 -27.951 36.037
112 1 1 131.021 -28.258 35.669
113 1 1 131.910 -27.946 35.581
114 1 1 131.261 -27.685 34.843
115 1 1 130.313 -27.834 34.767
116 1 1 129.985 -28.654 35.227
117 1 1 129.585 -29.374 35.730
118 1 1 129.639 -30.212 36.155
119 1 1 129.707 -31.039 35.755
120 1 1 130.141 -31.271 34.943
121 1 1 130.797 -32.053 34.887
122 1 1 131.291 -31.259 34.701
123 1 1 131.589 -30.862 33.959
124 1 1 131.257 -30.724 33.066
125 1 1 131.906 -30.230 32.577
126 1 1 132.804 -30.690 32.677
127 1 1 133.759 -30.681 32.474
128 1 1 134.225 -30.241 33.199
129 1 1 133.441 -29.777 33.027
130 1 1 133.283 -30.552 33.550
131 1 1 133.998 -31.248 33.594
132 1 1 134.691 -31.299 32.808
133 1 1 134.774 -30.395 32.411
134 1 1 135.377 -29.739 32.636
135 1 1 134.710 -29.305 33.089
136 1 1 134.647 -28.524 33.599
137 1 1 135.097 -27.820 33.264
138 1 1 134.820 -27.622 34.140
139 1 1 134.051 -27.207 34.468
140 1 1 133.565 -26.910 33.692
141 1 1 132.576 -26.614 33.729
142 1 1 131.715 -26.165 33.950
143 1 1 131.243 -25.655 33.249
144 1 1 130.859 -24.841 33.500
145 1 1 130.419 -24.139 33.964
146 1 1 129.958 -23.580 34.662
147 1 1 129.351 -23.136 35.329
148 1 1 129.878 -22.679 35.984
149 1 1 130.771 -22.542 36.361
150 1 1 131.090 -23.408 36.341
151 1 1 130.955 -23.451 37.290
152 1 1 130.863 -23.480 38.224
153 1 1 130.762 -23.614 39.187
154 1 1 131.188 -23.844 39.998
155 1 1 131.738 -23.241 40.635
156 1 1 132.008 -22.592 41.303
157 1 1 132.425 -21.980 41.832
158 1 1 132.993 -22.722 42.056
159 1 1 133.217 -22.791 41.127
160 1 1 133.134 -23.282 40.259
161 1 1 132.685 -24.003 39.826
162 1 1 132.197 -24.252 40.659
163 1 1 131.505 -24.935 40.796
164 1 1 132.230 -25.465 41.226
165 1 1 132.439 -26.281 40.857
166 1 1 132.364 -27.003 41.516
167 1 1 131.716 -27.544 42.031
168 1 1 130.920 -28.204 41.947
169 1 1 130.107 -28.746 41.919
170 1 1 129.619 -29.196 42.626
171 1 1 129.199 -29.631 41.862
172 1 1 128.370 -29.517 41.353
173 1 1 127.978 -30.234 40.886
174 1 1 128.086 -29.434 40.321
175 1 1 127.745 -29.624 39.478
176 1 1 127.196 -28.793 39.755
177 1 1 127.292 -28.237 38.903
178 1 1 127.224 -27.317 38.642
179 1 1 127.929 -26.707 38.915
180 1 1 128.862 -26.551 39.130
181 1 1 129.437 -25.788 39.286
182 1 1 129.115 -24.914 39.117
183 1 1 128.175 -25.105 39.338
184 1 1 127.381 -25.071 38.785
185 1 1 126.426 -25.257 38.729
186 1 1 125.634 -25.806 38.809
187 1 1 126.184 -26.078 38.088
188 1 1 127.148 -25.997 38.093
189 1 1 127.214 -26.019 39.057
190 1 1 127.961 -26.032 39.658
191 1 1 127.364 -25.309 39.869
192 1 1 126.830 -24.594 40.284
193 1 1 126.173 -24.409 40.960
194 1 1 126.145 -24.440 41.906
195 1 1 126.772 -24.953 42.362
196 1 1 127.185 -24.606 41.500
197 1 1 127.202 -23.912 42.177
198 1 1 127.520 -23.388 42.940
199 1 1 127.070 -22.752 43.435
200 1 1 127.737 -22.853 44.177
201 2 1 42.715 45.536 6.574
202 2 1 42.704 46.358 6.129
203 2 1 42.212 46.298 5.345
204 2 1 42.084 46.201 4.439
205 2 1 41.744 45.501 3.814
206 2 1 42.203 44.925 4.425
207 2 1 42.640 44.356 3.778
208 2 1 42.729 43.438 3.531
209 2 1 43.358 42.669 3.432
210 2 1 43.934 43.379 3.746
211 2 1 44.359 43.656 4.496
212 2 1 43.356 43.848 4.399
213 2 1 43.672 44.765 4.284
214 2 1 43.074 45.500 4.382
215 2 1 43.201 46.448 4.451
216 2 1 44.062 46.840 4.375
217 2 1 44.656 46.885 3.558
218 2 1 44.962 46.000 3.610
219 2 1 45.487 45.239 3.218
220 2 1 44.877 44.849 2.601
221 2 1 45.686 44.826 1.953
222 2 1 46.621 44.837 2.187
223 2 1 47.160 44.604 2.949
224 2 1 48.043 44.873 2.910
225 2 1 48.730 45.528 2.707
226 2 1 49.240 45.711 1.877
227 2 1 49.569 46.380 1.255
228 2 1 50.373 46.203 0.773
229 2 1 50.337 46.631 -0.074
230 2 1 50.117 47.296 -0.803
231 2 1 50.198 48.360 -0.834
232 2 1 49.984 48.072 -1.706
233 2 1 50.374 47.527 -2.499
234 2 1 50.511 46.959 -3.209
235 2 1 49.708 46.536 -3.593
236 2 1 49.350 45.736 -3.929
237 2 1 48.406 45.768 -3.698
238 2 1 47.653 46.254 -4.012
239 2 1 47.967 46.676 -3.136
240 2 1 48.592 47.023 -3.696
241 2 1 49.211 46.906 -4.495
242 2 1 49.509 46.645 -5.387
243 2 1 48.970 47.398 -5.598
244 2 1 49.618 47.808 -4.961
245 2 1 50.113 47.400 -4.260
246 2 1 50.581 48.083 -4.821
247 2 1 50.883 48.821 -4.353
248 2 1 51.710 48.348 -3.879
249 2 1 50.929 47.814 -3.694
250 2 1 50.119 48.280 -3.664
251 2 1 49.254 47.871 -3.793
252 2 1 48.714 48.480 -4.366
253 2 1 47.884 48.883 -4.763
254 2 1 47.698 48.678 -3.836
255 2 1 47.645 48.641 -2.866
256 2 1 48.112 49.022 -2.137
257 2 1 48.565 49.843 -1.747
258 2 1 49.199 50.178 -1.093
259 2 1 48.991 50.478 -0.262
260 2 1 48.566 50.360 0.561
261 2 1 49.411 50.816 0.597
262 2 1 49.509 51.483 -0.113
263 2 1 49.072 51.332 -0.888
264 2 1 48.619 50.894 -1.602
265 2 1 48.296 51.643 -2.003
266 2 1 48.607 52.563 -2.063
267 2 1 49.501 52.370 -2.328
268 2 1 50.162 52.734 -2.946
269 2 1 50.422 52.410 -3.811
270 2 1 51.277 52.850 -3.619
271 2 1 51.432 53.026 -4.562
272 2 1 51.643 52.410 -5.303
273 2 1 51.417 51.492 -5.412
274 2 1 51.558 50.519 -5.267
275 2 1 51.956 50.508 -4.351
276 2 1 51.757 50.506 -3.440
277 2 1 52.319 51.229 -3.191
278 2 1 51.879 52.149 -3.113
279 2 1 50.934 51.980 -2.997
280 2 1 50.261 51.544 -2.485
281 2 1 49.565 51.421 -1.944
282 2 1 50.002 50.821 -1.329
283 2 1 50.503 50.440 -2.021
284 2 1 49.749 50.005 -2.348
285 2 1 49.760 49.309 -3.015
286 2 1 49.136 48.615 -2.968
287 2 1 49.308 47.738 -2.579
288 2 1 48.841 46.898 -2.698
289 2 1 48.315 47.675 -2.920
290 2 1 48.368 47.974 -1.997
291 2 1 48.876 48.674 -1.615
292 2 1 48.797 49.261 -0.813
293 2 1 48.229 49.780 -0.238
294 2 1 48.188 50.494 -0.847
295 2 1 47.549 50.692 -1.650
296 2 1 47.392 49.840 -1.407
297 2 1 47.767 49.074 -1.024
298 2 1 47.932 48.127 -0.984
299 2 1 47.701 47.268 -1.197
300 2 1 47.055 46.753 -0.720
301 2 1 47.466 45.824 -0.649
302 2 1 47.151 45.370 0.090
303 2 1 47.319 44.422 0.086
304 2 1 47.346 43.565 0.509
305 2 1 46.928 43.057 1.167
306 2 1 47.284 42.345 1.639
307 2 1 47.843 41.917 2.312
308 2 1 47.800 41.045 2.708
309 2 1 47.167 41.281 3.410
310 2 1 46.460 41.796 3.822
311 2 1 45.966 41.629 2.973
312 2 1 45.236 41.880 3.583
313 2 1 45.079 41.642 4.496
314 2 1 45.038 41.974 5.345
315 2 1 45.837 42.244 4.918
316 2 1 45.788 43.010 4.275
317 2 1 44.937 42.904 4.006
318 2 1 44.350 42.142 3.982
319 2 1 44.047 41.242 4.280
320 2 1 43.901 40.300 4.316
321 2 1 44.722 39.887 4.546
322 2 1 44.495 39.040 4.954
323 2 1 45.335 39.064 5.364
324 2 1 46.016 39.742 5.309
325 2 1 46.740 39.521 5.875
326 2 1 46.297 38.761 5.460
327 2 1 45.807 38.305 4.714
328 2 1 46.604 37.802 4.846
329 2 1 46.565 36.850 4.844
330 2 1 45.884 36.704 5.442
331 2 1 45.426 37.086 4.658
332 2 1 45.394 36.968 3.687
333 2 1 45.687 36.190 3.213
334 2 1 45.733 36.036 2.296
335 2 1 45.269 36.119 1.392
336 2 1 45.765 36.372 0.614
337 2 1 45.513 37.157 0.192
338 2 1 44.663 36.867 0.418
339 2 1 43.874 36.648 0.888
340 2 1 44.639 36.913 1.439
341 2 1 44.288 36.617 2.316
342 2 1 44.337 36.006 3.069
343 2 1 44.827 35.455 3.670
344 2 1 44.173 36.066 4.128
345 2 1 43.633 36.617 3.533
346 2 1 43.220 37.171 4.127
347 2 1 42.530 36.913 3.440
348 2 1 41.651 36.815 3.038
349 2 1 41.397 37.132 2.132
350 2 1 42.249 37.487 1.797
351 2 1 42.824 37.329 2.562
352 2 1 43.618 37.519 3.124
353 2 1 44.417 37.887 3.403
354 2 1 44.282 37.224 4.105
355 2 1 44.880 37.945 4.552
356 2 1 44.428 38.108 5.413
357 2 1 43.710 38.485 5.881
358 2 1 44.549 38.935 6.031
359 2 1 44.647 38.432 6.818
360 2 1 43.712 38.327 6.902
361 2 1 42.790 38.551 6.741
362 2 1 41.913 38.895 6.586
363 2 1 41.847 39.812 6.391
364 2 1 41.025 40.206 5.971
365 2 1 40.385 39.792 6.560
366 2 1 39.814 39.556 7.367
367 2 1 38.858 39.493 7.211
368 2 1 38.497 40.096 6.483
369 2 1 39.210 40.526 7.042
370 2 1 39.703 41.392 6.926
371 2 1 40.411 40.799 6.734
372 2 1 41.004 41.584 7.029
373 2 1 41.920 41.530 7.337
374 2 1 41.892 40.989 6.566
375 2 1 42.286 40.594 5.825
376 2 1 42.612 40.623 4.973
377 2 1 42.333 41.512 5.192
378 2 1 43.135 41.675 4.729
379 2 1 43.840 42.250 5.094
380 2 1 43.531 43.152 5.246
381 2 1 43.705 44.093 5.349
382 2 1 42.883 44.457 5.179
383 2 1 41.987 44.377 5.465
384 2 1 41.305 44.264 4.737
385 2 1 42.128 43.892 4.563
386 2 1 41.586 43.606 3.801
387 2 1 41.453 43.245 2.924
388 2 1 42.058 43.725 2.394
389 2 1 42.697 44.018 1.760
390 2 1 43.243 43.313 1.352
391 2 1 44.114 43.283 0.936
392 2 1 44.086 44.103 1.364
393 2 1 44.063 44.628 2.132
394 2 1 43.713 45.464 2.202
395 2 1 44.230 45.615 3.001
396 2 1 44.028 45.659 3.928
397 2 1 44.060 45.875 4.889
398 2 1 43.334 45.662 5.465
399 2 1 42.456 45.315 5.646
400 2 1 41.757 45.456 6.229
401 3 1 10.102 -32.908 50.274
402 3 1 9.184 -32.932 50.588
403 3 1 8.263 -33.149 50.559
404 3 1 7.574 -33.193 51.262
405 3 1 8.338 -32.673 51.520
406 3 1 8.851 -32.486 52.265
407 3 1 8.900 -33.420 52.030
408 3 1 8.669 -34.390 52.192
409 3 1 9.277 -34.725 51.439
410 3 1 9.168 -35.327 50.671
411 3 1 9.164 -36.281 50.810
412 3 1 9.408 -36.712 50.033
413 3 1 8.580 -36.505 49.627
414 3 1 8.293 -35.699 49.284
415 3 1 9.245 -35.685 49.656
416 3 1 9.954 -35.053 49.744
417 3 1 10.739 -34.836 49.310
418 3 1 11.266 -34.230 48.793
419 3 1 11.554 -33.350 48.852
420 3 1 11.715 -32.423 48.688
421 3 1 10.822 -32.373 48.401
422 3 1 9.899 -32.336 48.650
423 3 1 9.334 -31.813 48.114
424 3 1 8.424 -31.563 47.997
425 3 1 8.406 -31.551 47.072
426 3 1 7.563 -31.739 46.687
427 3 1 6.860 -31.748 46.089
428 3 1 6.086 -31.206 46.032
429 3 1 5.264 -30.826 45.565
430 3 1 5.529 -29.905 45.649
431 3 1 5.511 -29.467 44.818
432 3 1 5.199 -28.969 44.072
433 3 1 5.406 -28.249 43.493
434 3 1 4.551 -27.886 43.468
435 3 1 3.617 -28.171 43.794
436 3 1 3.342 -28.999 44.205
437 3 1 2.791 -29.186 45.009
438 3 1 2.970 -29.347 45.990
439 3 1 3.850 -29.676 46.176
440 3 1 4.544 -30.352 46.325
441 3 1 4.539 -30.217 45.364
442 3 1 3.619 -29.939 45.018
443 3 1 2.818 -30.243 45.433
444 3 1 2.110 -30.552 46.019
445 3 1 1.954 -29.637 46.220
446 3 1 1.179 -29.755 45.731
447 3 1 0.281 -29.857 45.437
448 3 1 -0.372 -30.588 45.517
449 3 1 -1.319 -30.383 45.647
450 3 1 -1.897 -30.888 45.042
451 3 1 -1.888 -31.362 44.232
452 3 1 -1.945 -31.185 43.274
453 3 1 -1.382 -31.742 42.804
454 3 1 -0.460 -31.515 42.822
455 3 1 -0.453 -30.985 43.565
456 3 1 -1.187 -30.477 43.099
457 3 1 -1.849 -30.074 42.507
458 3 1 -1.140 -29.425 42.600
459 3 1 -0.649 -30.057 41.970
460 3 1 -0.663 -31.023 41.669
461 3 1 -1.601 -31.034 41.917
462 3 1 -2.528 -31.039 42.191
463 3 1 -3.038 -31.301 41.468
464 3 1 -3.891 -31.401 41.816
465 3 1 -3.568 -31.500 42.754
466 3 1 -3.171 -32.026 43.461
467 3 1 -2.785 -31.905 44.350
468 3 1 -2.766 -31.506 45.169
469 3 1 -2.631 -31.383 46.113
470 3 1 -2.841 -31.684 47.028
471 3 1 -1.958 -31.951 47.331
472 3 1 -1.067 -31.885 47.646
473 3 1 -1.683 -31.968 48.382
474 3 1 -1.203 -31.384 49.147
475 3 1 -0.788 -32.313 49.092
476 3 1 -0.501 -32.659 48.230
477 3 1 -0.736 -33.048 47.394
478 3 1 -1.614 -33.058 47.026
479 3 1 -1.570 -33.910 46.693
480 3 1 -0.950 -34.350 46.018
481 3 1 -0.191 -34.974 46.229
482 3 1 -0.537 -35.853 46.424
483 3 1 -1.419 -35.982 46.205
484 3 1 -1.266 -36.208 45.211
485 3 1 -0.346 -36.019 45.454
486 3 1 0.451 -35.429 45.556
487 3 1 0.702 -36.332 45.884
488 3 1 1.236 -36.161 45.150
489 3 1 1.966 -36.128 45.776
490 3 1 2.016 -36.517 46.689
491 3 1 2.054 -36.776 47.622
492 3 1 2.809 -37.038 47.082
493 3 1 2.771 -37.883 46.732
494 3 1 3.123 -38.389 46.022
495 3 1 3.933 -38.848 46.120
496 3 1 4.760 -39.368 46.065
497 3 1 5.173 -38.955 45.228
498 3 1 5.679 -38.491 44.563
499 3 1 5.555 -38.023 43.755
500 3 1 5.336 -37.093 43.748
501 3 1 5.298 -36.873 44.686
502 3 1 4.875 -37.550 45.142
503 3 1 4.641 -38.216 45.737
504 3 1 4.027 -37.486 45.640
505 3 1 3.929 -38.079 44.858
506 3 1 4.104 -38.911 44.502
507 3 1 4.196 -39.829 45.035
508 3 1 3.410 -40.160 44.557
509 3 1 2.970 -40.634 45.280
510 3 1 2.163 -40.982 45.422
511 3 1 1.723 -41.168 46.265
512 3 1 2.053 -40.256 46.280
513 3 1 2.392 -39.571 45.567
514 3 1 2.941 -38.924 45.090
515 3 1 2.545 -38.103 45.248
516 3 1 2.266 -37.358 44.714
517 3 1 1.997 -36.439 44.540
518 3 1 2.901 -36.191 44.757
519 3 1 3.133 -37.005 45.060
520 3 1 3.180 -37.551 44.262
521 3 1 4.009 -37.232 43.955
522 3 1 4.101 -36.834 44.771
523 3 1 4.431 -36.394 45.548
524 3 1 5.074 -35.702 45.261
525 3 1 4.834 -35.072 45.990
526 3 1 4.028 -35.149 46.468
527 3 1 3.179 -34.921 46.831
528 3 1 2.751 -34.135 46.604
529 3 1 2.075 -33.570 46.946
530 3 1 1.487 -33.711 47.698
531 3 1 2.052 -33.765 48.482
532 3 1 1.976 -33.323 49.321
533 3 1 1.217 -32.990 49.736
534 3 1 1.661 -33.659 50.287
535 3 1 1.952 -33.981 51.133
536 3 1 2.753 -34.084 51.734
537 3 1 3.318 -34.622 52.308
538 3 1 4.264 -34.444 52.191
539 3 1 5.055 -34.872 52.537
540 3 1 5.782 -34.272 52.308
541 3 1 6.677 -34.013 52.100
542 3 1 7.509 -34.467 52.125
543 3 1 7.429 -35.050 51.255
544 3 1 8.020 -35.366 50.505
545 3 1 8.145 -34.659 49.862
546 3 1 8.256 -34.701 48.881
547 3 1 8.063 -34.208 48.078
548 3 1 7.955 -33.528 47.423
549 3 1 7.532 -32.904 46.740
550 3 1 6.714 -32.580 46.977
551 3 1 5.865 -32.116 46.894
552 3 1 5.464 -32.234 46.062
553 3 1 5.168 -32.863 45.416
554 3 1 4.583 -32.429 44.797
555 3 1 4.611 -32.317 43.872
556 3 1 5.009 -31.596 44.368
557 3 1 5.578 -31.840 45.131
558 3 1 6.487 -32.237 45.298
559 3 1 7.237 -32.699 45.675
560 3 1 8.069 -33.205 45.644
561 3 1 7.645 -33.490 44.877
562 3 1 7.525 -33.244 43.999
563 3 1 6.577 -33.200 43.959
564 3 1 6.914 -32.594 43.271
565 3 1 6.892 -32.321 42.343
566 3 1 6.965 -31.610 42.976
567 3 1 7.180 -31.035 43.705
568 3 1 8.042 -31.014 44.146
569 3 1 8.016 -30.545 44.950
570 3 1 8.087 -30.762 45.895
571 3 1 7.781 -31.625 45.531
572 3 1 7.241 -31.599 44.764
573 3 1 6.733 -32.134 44.156
574 3 1 5.923 -31.972 43.639
575 3 1 6.081 -31.332 44.316
576 3 1 5.678 -30.566 44.673
577 3 1 4.723 -30.674 44.260
578 3 1 5.183 -29.973 43.890
579 3 1 4.310 -29.608 44.148
580 3 1 3.607 -29.909 43.502
581 3 1 3.761 -29.030 43.092
582 3 1 4.716 -29.231 43.147
583 3 1 5.646 -29.410 43.131
584 3 1 6.487 -29.849 43.117
585 3 1 7.401 -30.093 43.237
586 3 1 8.191 -30.582 43.032
587 3 1 8.622 -31.255 42.472
588 3 1 8.071 -32.036 42.407
589 3 1 8.150 -31.784 43.315
590 3 1 7.813 -32.182 44.043
591 3 1 8.463 -32.613 44.546
592 3 1 9.230 -33.170 44.723
593 3 1 9.232 -32.929 45.709
594 3 1 8.732 -32.486 46.373
595 3 1 8.354 -32.567 47.280
596 3 1 8.664 -33.053 47.986
597 3 1 8.352 -33.237 48.928
598 3 1 8.379 -32.284 48.684
599 3 1 8.828 -32.195 49.543
600 3 1 9.707 -32.150 49.892
601 4 1 -32.747 9.765 -22.493
602 4 1 -32.917 8.870 -22.841
603 4 1 -33.664 8.315 -22.679
604 4 1 -34.447 7.772 -22.649
605 4 1 -35.332 7.836 -22.268
606 4 1 -35.523 7.972 -21.317
607 4 1 -35.208 8.494 -20.634
608 4 1 -35.587 9.056 -19.909
609 4 1 -35.767 9.957 -19.545
610 4 1 -35.713 10.950 -19.470
611 4 1 -35.247 10.739 -20.258
612 4 1 -34.808 11.138 -20.960
613 4 1 -34.705 11.355 -21.933
614 4 1 -35.390 12.071 -21.705
615 4 1 -35.258 12.407 -22.638
616 4 1 -34.712 12.432 -23.404
617 4 1 -34.421 13.268 -23.793
618 4 1 -34.359 14.040 -23.162
619 4 1 -34.114 14.761 -22.603
620 4 1 -35.094 14.648 -22.745
621 4 1 -35.951 14.309 -23.003
622 4 1 -36.281 13.624 -23.542
623 4 1 -36.040 12.751 -23.874
624 4 1 -35.324 12.967 -24.438
625 4 1 -34.763 13.055 -25.160
626 4 1 -34.568 13.436 -26.059
627 4 1 -34.767 14.058 -26.780
628 4 1 -35.178 14.183 -27.661
629 4 1 -35.000 15.084 -27.938
630 4 1 -34.096 15.097 -27.931
631 4 1 -33.953 14.551 -27.129
632 4 1 -33.987 14.477 -26.161
633 4 1 -34.364 14.180 -25.385
634 4 1 -35.178 13.898 -24.883
635 4 1 -35.328 13.854 -23.874
636 4 1 -35.315 13.448 -22.875
637 4 1 -34.678 13.727 -22.224
638 4 1 -34.293 12.896 -21.976
639 4 1 -34.907 12.852 -21.281
640 4 1 -34.975 13.822 -21.270
641 4 1 -34.734 14.681 -21.778
642 4 1 -34.418 15.546 -21.453
643 4 1 -34.748 16.327 -21.015
644 4 1 -34.974 16.457 -20.085
645 4 1 -35.391 17.312 -20.437
646 4 1 -35.426 18.203 -20.662
647 4 1 -35.011 18.884 -20.212
648 4 1 -35.265 19.454 -19.439
649 4 1 -35.552 20.323 -19.715
650 4 1 -36.138 20.625 -20.411
651 4 1 -35.940 19.760 -20.772
652 4 1 -35.220 19.159 -21.132
653 4 1 -34.427 18.546 -21.210
654 4 1 -34.436 17.651 -20.885
655 4 1 -35.048 17.273 -21.551
656 4 1 -34.944 16.967 -22.438
657 4 1 -35.163 16.217 -22.999
658 4 1 -35.705 15.464 -23.210
659 4 1 -36.527 16.002 -22.963
660 4 1 -36.003 16.813 -22.960
661 4 1 -35.877 17.553 -22.323
662 4 1 -36.546 18.320 -22.541
663 4 1 -36.342 18.315 -21.587
664 4 1 -36.531 18.963 -20.835
665 4 1 -36.040 19.055 -19.925
666 4 1 -36.422 18.244 -19.634
667 4 1 -35.485 18.317 -19.534
668 4 1 -34.710 17.799 -19.696
669 4 1 -33.768 17.737 -19.754
670 4 1 -33.798 16.829 -20.039
671 4 1 -33.766 16.223 -20.747
672 4 1 -33.422 15.860 -21.558
673 4 1 -33.296 15.250 -22.291
674 4 1 -33.078 14.356 -22.078
675 4 1 -33.397 13.499 -22.146
676 4 1 -33.840 12.896 -22.817
677 4 1 -34.160 12.010 -22.728
678 4 1 -33.504 11.348 -22.777
679 4 1 -33.412 10.618 -22.138
680 4 1 -34.171 10.068 -22.297
681 4 1 -35.069 10.392 -22.061
682 4 1 -35.686 11.071 -21.746
683 4 1 -36.201 10.538 -22.503
684 4 1 -36.803 10.523 -23.212
685 4 1 -37.130 11.280 -23.719
686 4 1 -37.114 12.277 -23.666
687 4 1 -37.141 13.190 -23.892
688 4 1 -37.324 13.742 -24.620
689 4 1 -38.183 13.663 -24.981
690 4 1 -37.547 14.121 -25.538
691 4 1 -37.070 14.600 -26.212
692 4 1 -36.502 15.036 -26.815
693 4 1 -35.664 14.538 -26.654
694 4 1 -35.625 14.542 -25.723
695 4 1 -36.248 13.869 -25.750
696 4 1 -35.849 13.070 -25.419
697 4 1 -36.629 12.899 -24.987
698 4 1 -36.824 12.218 -25.670
699 4 1 -37.679 11.890 -26.074
700 4 1 -37.440 11.342 -25.335
701 4 1 -36.587 11.356 -24.914
702 4 1 -35.901 10.710 -24.450
703 4 1 -35.638 10.347 -23.552
704 4 1 -35.999 9.534 -23.158
705 4 1 -36.531 9.340 -22.400
706 4 1 -35.901 9.808 -21.853
707 4 1 -35.359 9.983 -21.048
708 4 1 -36.321 10.062 -20.835
709 4 1 -36.109 9.145 -20.955
710 4 1 -36.616 8.724 -20.273
711 4 1 -36.325 8.580 -19.411
712 4 1 -36.658 8.949 -18.539
713 4 1 -36.843 8.280 -17.821
714 4 1 -37.342 7.929 -17.110
715 4 1 -38.257 7.814 -17.019
716 4 1 -38.981 7.383 -16.670
717 4 1 -38.582 7.881 -16.013
718 4 1 -37.957 8.084 -15.308
719 4 1 -37.241 8.653 -15.033
720 4 1 -36.427 9.107 -15.236
721 4 1 -37.120 9.674 -15.546
722 4 1 -37.186 9.984 -16.438
723 4 1 -37.895 9.707 -16.988
724 4 1 -37.405 8.954 -17.327
725 4 1 -36.947 8.784 -16.546
726 4 1 -36.133 8.519 -16.135
727 4 1 -35.786 8.072 -17.001
728 4 1 -36.269 7.090 -16.893
729 4 1 -36.127 7.400 -17.754
730 4 1 -36.288 7.836 -18.593
731 4 1 -37.109 8.120 -19.003
732 4 1 -38.075 8.194 -19.355
733 4 1 -38.525 9.004 -19.602
734 4 1 -39.060 9.707 -19.921
735 4 1 -39.160 10.493 -20.489
736 4 1 -38.848 10.744 -21.298
737 4 1 -38.952 11.541 -21.768
738 4 1 -39.208 12.154 -22.469
739 4 1 -38.859 11.422 -22.947
740 4 1 -39.265 10.775 -22.373
741 4 1 -40.145 10.422 -22.012
742 4 1 -40.126 10.408 -21.034
743 4 1 -39.428 9.794 -21.388
744 4 1 -39.533 9.567 -22.297
745 4 1 -39.755 9.907 -23.194
746 4 1 -39.565 8.971 -23.238
747 4 1 -38.764 9.346 -22.992
748 4 1 -38.593 9.924 -22.284
749 4 1 -38.413 9.691 -21.407
750 4 1 -38.356 8.969 -20.870
751 4 1 -37.700 9.112 -20.206
752 4 1 -37.243 9.576 -20.886
753 4 1 -36.833 9.991 -21.711
754 4 1 -36.698 10.897 -21.691
755 4 1 -36.461 11.598 -22.436
756 4 1 -37.221 12.155 -22.442
757 4 1 -37.706 11.387 -22.631
758 4 1 -37.553 10.559 -22.232
759 4 1 -37.779 10.093 -23.069
760 4 1 -37.564 9.372 -22.494
761 4 1 -37.362 8.648 -21.965
762 4 1 -37.126 8.523 -22.884
763 4 1 -36.947 7.709 -23.438
764 4 1 -37.277 7.543 -22.537
765 4 1 -37.518 7.200 -21.721
766 4 1 -37.618 6.938 -20.799
767 4 1 -37.956 6.162 -20.350
768 4 1 -38.612 5.541 -20.582
769 4 1 -39.241 5.537 -21.373
770 4 1 -39.311 5.318 -22.357
771 4 1 -39.652 4.625 -21.742
772 4 1 -39.445 4.478 -20.822
773 4 1 -39.054 4.779 -19.997
774 4 1 -39.615 5.558 -20.198
775 4 1 -40.407 6.094 -20.103
776 4 1 -39.842 6.480 -20.787
777 4 1 -39.441 7.345 -20.827
778 4 1 -38.792 7.010 -21.382
779 4 1 -38.376 7.745 -20.881
780 4 1 -37.601 8.238 -21.106
781 4 1 -36.701 8.191 -21.294
782 4 1 -36.129 8.516 -21.951
783 4 1 -35.885 8.383 -22.945
784 4 1 -36.270 8.538 -23.806
785 4 1 -35.355 8.284 -24.035
786 4 1 -35.172 8.666 -24.869
787 4 1 -34.729 9.470 -25.153
788 4 1 -33.838 9.409 -25.595
789 4 1 -33.040 9.257 -25.046
790 4 1 -32.597 9.993 -24.676
791 4 1 -33.519 10.224 -24.270
792 4 1 -34.075 10.920 -24.476
793 4 1 -34.870 11.363 -24.126
794 4 1 -35.707 11.793 -24.230
795 4 1 -36.129 11.370 -23.425
796 4 1 -35.358 11.353 -22.852
797 4 1 -34.688 10.687 -22.992
798 4 1 -34.581 9.806 -23.256
799 4 1 -33.762 9.227 -23.279
800 4 1 -33.212 10.043 -23.237
801 5 1 48.521 -89.703 -4.664
802 5 1 48.446 -89.173 -3.863
803 5 1 48.785 -88.532 -3.256
804 5 1 49.000 -87.731 -2.729
805 5 1 49.640 -87.175 -3.137
806 5 1 50.368 -86.576 -3.280
807 5 1 50.892 -86.370 -2.526
808 5 1 51.639 -86.460 -1.883
809 5 1 52.116 -87.162 -1.487
810 5 1 52.435 -87.926 -1.017
811 5 1 51.499 -88.297 -0.776
812 5 1 50.842 -88.626 -0.182
813 5 1 50.454 -88.273 0.565
814 5 1 49.540 -88.561 0.217
815 5 1 49.446 -89.255 0.889
816 5 1 50.339 -89.038 1.290
817 5 1 50.539 -88.165 1.714
818 5 1 50.519 -87.251 2.077
819 5 1 50.876 -86.444 1.581
820 5 1 50.913 -86.192 0.639
821 5 1 50.226 -86.705 0.179
822 5 1 50.065 -87.588 -0.096
823 5 1 49.316 -87.086 -0.366
824 5 1 49.924 -86.814 -1.076
825 5 1 50.018 -86.984 -1.981
826 5 1 50.004 -87.917 -2.324
827 5 1 50.279 -88.834 -2.344
828 5 1 49.703 -89.565 -2.159
829 5 1 49.837 -90.330 -1.665
830 5 1 49.741 -90.739 -0.751
831 5 1 50.566 -90.715 -0.233
832 5 1 50.777 -91.550 0.257
833 5 1 51.653 -91.892 0.569
834 5 1 51.631 -92.550 1.341
835 5 1 51.533 -92.678 2.229
836 5 1 52.192 -93.081 2.722
837 5 1 52.725 -92.793 3.444
838 5 1 52.720 -91.837 3.536
839 5 1 52.177 -91.123 3.225
840 5 1 52.670 -90.701 2.513
841 5 1 52.361 -91.428 1.989
842 5 1 52.597 -92.398 2.046
843 5 1 52.504 -93.285 1.734
844 5 1 52.839 -94.101 1.496
845 5 1 52.166 -94.837 1.502
846 5 1 51.514 -94.171 1.665
847 5 1 51.016 -93.472 2.094
848 5 1 50.458 -92.720 2.128
849 5 1 50.167 -92.043 1.469
850 5 1 49.492 -91.581 0.996
851 5 1 49.232 -91.039 0.244
852 5 1 48.696 -91.143 -0.590
853 5 1 48.442 -92.025 -0.405
854 5 1 48.020 -91.477 0.290
855 5 1 47.986 -90.752 0.915
856 5 1 47.436 -89.969 1.120
857 5 1 46.835 -90.757 1.372
858 5 1 47.010 -91.523 0.851
859 5 1 47.249 -92.419 0.730
860 5 1 46.506 -92.820 0.419
861 5 1 45.976 -93.276 -0.221
862 5 1 46.019 -92.336 -0.494
863 5 1 45.906 -91.828 0.280
864 5 1 45.347 -91.097 0.060
865 5 1 44.794 -90.650 -0.570
866 5 1 44.984 -89.751 -0.809
867 5 1 44.716 -89.353 -1.627
868 5 1 45.282 -89.276 -2.387
869 5 1 46.204 -89.307 -2.545
870 5 1 47.201 -89.162 -2.703
871 5 1 48.067 -89.567 -2.944
872 5 1 49.022 -89.689 -2.881
873 5 1 49.234 -89.900 -3.773
874 5 1 49.646 -89.658 -4.614
875 5 1 49.228 -90.229 -5.293
876 5 1 48.603 -90.867 -5.552
877 5 1 48.031 -91.641 -5.431
878 5 1 47.169 -92.066 -5.335
879 5 1 47.892 -92.599 -5.706
880 5 1 48.785 -92.699 -5.860
881 5 1 48.503 -91.916 -6.333
882 5 1 48.200 -91.032 -6.661
883 5 1 49.192 -91.121 -6.724
884 5 1 49.845 -91.246 -7.459
885 5 1 50.370 -90.586 -7.909
886 5 1 49.716 -90.064 -8.244
887 5 1 49.070 -89.563 -8.619
888 5 1 48.725 -88.864 -9.230
889 5 1 48.834 -87.934 -9.252
890 5 1 48.469 -87.167 -9.754
891 5 1 48.262 -86.251 -9.741
892 5 1 48.204 -86.033 -10.660
893 5 1 48.622 -86.428 -11.452
894 5 1 49.456 -86.349 -10.976
895 5 1 50.382 -86.099 -10.792
896 5 1 50.394 -86.683 -10.058
897 5 1 50.701 -85.883 -9.630
898 5 1 50.748 -84.967 -9.930
899 5 1 49.930 -84.627 -9.528
900 5 1 49.199 -84.089 -9.297
901 5 1 48.739 -83.660 -10.042
902 5 1 48.429 -83.841 -10.959
903 5 1 47.458 -84.015 -10.701
904 5 1 46.573 -84.304 -10.643
905 5 1 45.676 -83.903 -10.380
906 5 1 45.891 -84.685 -9.844
907 5 1 45.410 -85.362 -9.316
908 5 1 45.188 -85.115 -8.416
909 5 1 44.644 -85.741 -7.911
910 5 1 43.808 -85.625 -8.353
911 5 1 43.553 -85.327 -9.274
912 5 1 43.179 -84.852 -9.928
913 5 1 43.782 -84.125 -9.969
914 5 1 44.452 -84.078 -9.326
915 5 1 44.291 -84.684 -8.640
916 5 1 44.593 -84.720 -7.744
917 5 1 45.311 -85.116 -7.287
918 5 1 46.187 -85.485 -7.058
919 5 1 46.558 -85.971 -6.355
920 5 1 46.714 -86.777 -5.895
921 5 1 45.763 -86.667 -6.097
922 5 1 45.193 -86.092 -6.592
923 5 1 44.605 -86.792 -6.621
924 5 1 43.852 -87.347 -6.638
925 5 1 44.318 -88.082 -6.103
926 5 1 43.954 -88.884 -5.843
927 5 1 43.638 -89.740 -5.590
928 5 1 43.121 -90.014 -6.393
929 5 1 43.196 -90.095 -7.342
930 5 1 43.939 -89.553 -6.971
931 5 1 44.059 -88.631 -7.182
932 5 1 44.996 -88.738 -7.471
933 5 1 45.918 -89.047 -7.780
934 5 1 45.497 -88.469 -8.382
935 5 1 45.043 -88.358 -9.197
936 5 1 44.547 -88.319 -10.077
937 5 1 44.720 -88.716 -11.000
938 5 1 44.680 -89.395 -11.680
939 5 1 44.070 -90.004 -12.155
940 5 1 44.266 -90.747 -12.679
941 5 1 43.730 -91.194 -12.008
942 5 1 43.005 -91.065 -11.456
943 5 1 42.650 -90.934 -10.553
944 5 1 43.180 -90.699 -9.722
945 5 1 43.056 -89.768 -9.514
946 5 1 43.134 -89.250 -8.699
947 5 1 43.254 -88.699 -7.935
948 5 1 42.962 -88.995 -7.078
949 5 1 42.288 -89.521 -6.677
950 5 1 41.989 -90.281 -7.116
951 5 1 41.852 -90.762 -7.928
952 5 1 42.770 -90.986 -7.970
953 5 1 43.635 -91.436 -7.816
954 5 1 44.315 -90.851 -8.058
955 5 1 44.548 -90.594 -7.226
956 5 1 45.183 -91.067 -6.720
957 5 1 45.728 -91.281 -5.950
958 5 1 45.962 -91.957 -5.407
959 5 1 46.033 -92.703 -4.851
960 5 1 47.034 -92.866 -4.633
961 5 1 47.698 -92.362 -4.179
962 5 1 48.390 -92.258 -3.533
963 5 1 47.782 -91.620 -3.064
964 5 1 46.966 -91.215 -3.174
965 5 1 46.252 -90.840 -2.681
966 5 1 46.199 -90.619 -3.627
967 5 1 46.733 -89.945 -3.141
968 5 1 47.390 -90.293 -2.535
969 5 1 47.180 -91.139 -2.231
970 5 1 48.018 -90.989 -1.769
971 5 1 48.900 -90.973 -1.513
972 5 1 49.722 -91.495 -1.484
973 5 1 50.425 -91.970 -1.886
974 5 1 50.681 -91.018 -1.704
975 5 1 50.882 -90.063 -1.772
976 5 1 51.696 -89.564 -1.563
977 5 1 52.497 -89.801 -1.147
978 5 1 51.840 -90.499 -1.113
979 5 1 51.978 -91.268 -0.558
980 5 1 51.476 -91.611 -1.330
981 5 1 51.536 -92.332 -2.015
982 5 1 51.407 -93.167 -2.409
983 5 1 50.853 -93.573 -3.050
984 5 1 49.999 -93.839 -3.215
985 5 1 49.843 -94.059 -4.130
986 5 1 49.378 -94.387 -4.928
987 5 1 48.505 -94.665 -5.316
988 5 1 48.711 -93.823 -5.617
989 5 1 49.239 -93.317 -4.867
990 5 1 49.416 -92.532 -4.336
991 5 1 49.374 -91.844 -3.637
992 5 1 48.754 -91.220 -3.864
993 5 1 48.332 -90.796 -4.576
994 5 1 47.516 -90.665 -5.094
995 5 1 47.396 -91.383 -4.410
996 5 1 46.506 -91.292 -4.792
997 5 1 46.288 -90.516 -5.310
998 5 1 46.956 -90.039 -5.846
999 5 1 47.985 -89.928 -5.624
1000 5 1 47.614 -89.447 -4.896
1001 6 1 67.619 -44.658 86.575