LAMMPS

1536 atoms
1024 bonds
 512 angles
   0 dihedrals
   0 impropers

   2 atom types
   1 bond types
   1 angle types
   0 dihedral types
   0 improper types

0.0000 24.8344 xlo xhi
0.0000 24.8344 ylo yhi
0.0000 24.8344 zlo zhi

Atoms

1 1 1 -0.8476  1.639  1.680  1.276                                      
2 1 2  0.4238  2.427  2.295  1.276                                      
3 1 2  0.4238  0.851  2.295  1.276                                      
4 2 1 -0.8476  1.400  1.381  4.663                                      
5 2 2  0.4238  2.188  1.997  4.663                                      
6 2 2  0.4238  0.612  1.997  4.663                                      
7 3 1 -0.8476  1.794  1.463  7.502                                      
8 3 2  0.4238  2.582  2.079  7.502                                      
9 3 2  0.4238  1.006  2.079  7.502                                      
10 4 1 -0.8476  1.593  1.588 10.749                                     
11 4 2  0.4238  2.381  2.204 10.749                                     
12 4 2  0.4238  0.805  2.204 10.749                                     
13 5 1 -0.8476  1.364  1.363 14.195                                     
14 5 2  0.4238  2.152  1.979 14.195                                     
15 5 2  0.4238  0.576  1.979 14.195                                     
16 6 1 -0.8476  1.494  1.675 16.982                                     
17 6 2  0.4238  2.282  2.291 16.982                                     
18 6 2  0.4238  0.706  2.291 16.982                                     
19 7 1 -0.8476  1.631  1.759 20.419                                     
20 7 2  0.4238  2.419  2.374 20.419                                     
21 7 2  0.4238  0.843  2.374 20.419                                     
22 8 1 -0.8476  1.772  1.575 23.267                                     
23 8 2  0.4238  2.560  2.190 23.267                                     
24 8 2  0.4238  0.984  2.190 23.267                                     
25 9 1 -0.8476  1.448  4.634  1.362                                     
26 9 2  0.4238  2.236  5.250  1.362                                     
27 9 2  0.4238  0.660  5.250  1.362                                     
28 10 1 -0.8476  1.248  4.704  4.400                                    
29 10 2  0.4238  2.036  5.320  4.400                                    
30 10 2  0.4238  0.460  5.320  4.400                                    
31 11 1 -0.8476  1.425  4.647  7.760                                    
32 11 2  0.4238  2.213  5.262  7.760                                    
33 11 2  0.4238  0.637  5.262  7.760                                    
34 12 1 -0.8476  1.728  4.465 10.815                                    
35 12 2  0.4238  2.516  5.081 10.815                                    
36 12 2  0.4238  0.939  5.081 10.815                                    
37 13 1 -0.8476  1.683  4.611 14.027                                    
38 13 2  0.4238  2.471  5.227 14.027                                    
39 13 2  0.4238  0.895  5.227 14.027                                    
40 14 1 -0.8476  1.709  4.778 16.811                                    
41 14 2  0.4238  2.497  5.394 16.811                                    
42 14 2  0.4238  0.921  5.394 16.811                                    
43 15 1 -0.8476  1.381  4.431 20.344                                    
44 15 2  0.4238  2.169  5.047 20.344                                    
45 15 2  0.4238  0.593  5.047 20.344                                    
46 16 1 -0.8476  1.432  4.683 23.353                                    
47 16 2  0.4238  2.220  5.299 23.353                                    
48 16 2  0.4238  0.644  5.299 23.353                                    
49 17 1 -0.8476  1.491  7.943  1.571                                    
50 17 2  0.4238  2.279  8.558  1.571                                    
51 17 2  0.4238  0.703  8.558  1.571                                    
52 18 1 -0.8476  1.709  7.714  4.431                                    
53 18 2  0.4238  2.497  8.329  4.431                                    
54 18 2  0.4238  0.921  8.329  4.431                                    
55 19 1 -0.8476  1.560  7.835  7.934                                    
56 19 2  0.4238  2.348  8.450  7.934                                    
57 19 2  0.4238  0.772  8.450  7.934                                    
58 20 1 -0.8476  1.391  8.023 10.757                                    
59 20 2  0.4238  2.179  8.638 10.757                                    
60 20 2  0.4238  0.603  8.638 10.757                                    
61 21 1 -0.8476  1.690  7.511 13.771                                    
62 21 2  0.4238  2.478  8.127 13.771                                    
63 21 2  0.4238  0.902  8.127 13.771                                    
64 22 1 -0.8476  1.425  8.004 17.251                                    
65 22 2  0.4238  2.214  8.620 17.251                                    
66 22 2  0.4238  0.637  8.620 17.251                                    
67 23 1 -0.8476  1.851  7.621 20.434                                    
68 23 2  0.4238  2.639  8.237 20.434                                    
69 23 2  0.4238  1.063  8.237 20.434                                    
70 24 1 -0.8476  1.766  7.453 23.570                                    
71 24 2  0.4238  2.554  8.068 23.570                                    
72 24 2  0.4238  0.978  8.068 23.570                                    
73 25 1 -0.8476  1.710 10.948  1.750                                    
74 25 2  0.4238  2.498 11.564  1.750                                    
75 25 2  0.4238  0.922 11.564  1.750                                    
76 26 1 -0.8476  1.363 10.947  4.718                                    
77 26 2  0.4238  2.151 11.563  4.718                                    
78 26 2  0.4238  0.575 11.563  4.718                                    
79 27 1 -0.8476  1.599 10.940  7.788                                    
80 27 2  0.4238  2.387 11.555  7.788                                    
81 27 2  0.4238  0.811 11.555  7.788                                    
82 28 1 -0.8476  1.604 10.589 10.882                                    
83 28 2  0.4238  2.392 11.204 10.882                                    
84 28 2  0.4238  0.816 11.204 10.882                                    
85 29 1 -0.8476  1.280 11.171 13.663                                    
86 29 2  0.4238  2.068 11.786 13.663                                    
87 29 2  0.4238  0.492 11.786 13.663                                    
88 30 1 -0.8476  1.400 10.972 17.086                                    
89 30 2  0.4238  2.188 11.588 17.086                                    
90 30 2  0.4238  0.612 11.588 17.086                                    
91 31 1 -0.8476  1.495 11.020 20.476                                    
92 31 2  0.4238  2.283 11.636 20.476                                    
93 31 2  0.4238  0.707 11.636 20.476                                    
94 32 1 -0.8476  1.814 10.595 23.084                                    
95 32 2  0.4238  2.602 11.210 23.084                                    
96 32 2  0.4238  1.026 11.210 23.084                                    
97 33 1 -0.8476  1.459 14.049  1.760                                    
98 33 2  0.4238  2.247 14.664  1.760                                    
99 33 2  0.4238  0.671 14.664  1.760                                    
100 34 1 -0.8476  1.859 13.776  4.479                                   
101 34 2  0.4238  2.647 14.392  4.479                                   
102 34 2  0.4238  1.071 14.392  4.479                                   
103 35 1 -0.8476  1.350 14.202  7.617                                   
104 35 2  0.4238  2.138 14.817  7.617                                   
105 35 2  0.4238  0.562 14.817  7.617                                   
106 36 1 -0.8476  1.243 14.018 11.166                                   
107 36 2  0.4238  2.031 14.634 11.166                                   
108 36 2  0.4238  0.455 14.634 11.166                                   
109 37 1 -0.8476  1.769 14.253 14.181                                   
110 37 2  0.4238  2.557 14.869 14.181                                   
111 37 2  0.4238  0.981 14.869 14.181                                   
112 38 1 -0.8476  1.592 13.710 17.036                                   
113 38 2  0.4238  2.380 14.326 17.036                                   
114 38 2  0.4238  0.804 14.326 17.036                                   
115 39 1 -0.8476  1.571 14.254 20.314                                   
116 39 2  0.4238  2.359 14.869 20.314                                   
117 39 2  0.4238  0.783 14.869 20.314                                   
118 40 1 -0.8476  1.390 13.783 23.408                                   
119 40 2  0.4238  2.178 14.399 23.408                                   
120 40 2  0.4238  0.602 14.399 23.408                                   
121 41 1 -0.8476  1.600 16.998  1.826                                   
122 41 2  0.4238  2.388 17.614  1.826                                   
123 41 2  0.4238  0.812 17.614  1.826                                   
124 42 1 -0.8476  1.376 17.169  4.941                                   
125 42 2  0.4238  2.164 17.785  4.941                                   
126 42 2  0.4238  0.588 17.785  4.941                                   
127 43 1 -0.8476  1.304 16.899  7.762                                   
128 43 2  0.4238  2.092 17.515  7.762                                   
129 43 2  0.4238  0.516 17.515  7.762                                   
130 44 1 -0.8476  1.740 17.037 10.946                                   
131 44 2  0.4238  2.528 17.653 10.946                                   
132 44 2  0.4238  0.952 17.653 10.946                                   
133 45 1 -0.8476  1.460 17.338 13.891                                   
134 45 2  0.4238  2.248 17.954 13.891                                   
135 45 2  0.4238  0.672 17.954 13.891                                   
136 46 1 -0.8476  1.769 16.813 16.806                                   
137 46 2  0.4238  2.557 17.429 16.806                                   
138 46 2  0.4238  0.981 17.429 16.806                                   
139 47 1 -0.8476  1.751 17.128 19.941                                   
140 47 2  0.4238  2.539 17.744 19.941                                   
141 47 2  0.4238  0.963 17.744 19.941                                   
142 48 1 -0.8476  1.651 16.956 23.165                                   
143 48 2  0.4238  2.439 17.572 23.165                                   
144 48 2  0.4238  0.863 17.572 23.165                                   
145 49 1 -0.8476  1.332 20.402  1.747                                   
146 49 2  0.4238  2.120 21.017  1.747                                   
147 49 2  0.4238  0.544 21.017  1.747                                   
148 50 1 -0.8476  1.735 20.214  4.812                                   
149 50 2  0.4238  2.523 20.829  4.812                                   
150 50 2  0.4238  0.947 20.829  4.812                                   
151 51 1 -0.8476  1.583 19.978  8.031                                   
152 51 2  0.4238  2.371 20.594  8.031                                   
153 51 2  0.4238  0.795 20.594  8.031                                   
154 52 1 -0.8476  1.511 20.090 11.133                                   
155 52 2  0.4238  2.299 20.705 11.133                                   
156 52 2  0.4238  0.723 20.705 11.133                                   
157 53 1 -0.8476  1.527 19.877 14.214                                   
158 53 2  0.4238  2.315 20.493 14.214                                   
159 53 2  0.4238  0.739 20.493 14.214                                   
160 54 1 -0.8476  1.677 20.128 17.110                                   
161 54 2  0.4238  2.465 20.744 17.110                                   
162 54 2  0.4238  0.889 20.744 17.110                                   
163 55 1 -0.8476  1.534 20.184 20.270                                   
164 55 2  0.4238  2.322 20.799 20.270                                   
165 55 2  0.4238  0.746 20.799 20.270                                   
166 56 1 -0.8476  1.419 19.869 23.443                                   
167 56 2  0.4238  2.207 20.485 23.443                                   
168 56 2  0.4238  0.631 20.485 23.443                                   
169 57 1 -0.8476  1.402 23.327  1.310                                   
170 57 2  0.4238  2.190 23.943  1.310                                   
171 57 2  0.4238  0.614 23.943  1.310                                   
172 58 1 -0.8476  1.625 22.988  4.783                                   
173 58 2  0.4238  2.413 23.604  4.783                                   
174 58 2  0.4238  0.837 23.604  4.783                                   
175 59 1 -0.8476  1.448 23.084  7.874                                   
176 59 2  0.4238  2.236 23.699  7.874                                   
177 59 2  0.4238  0.660 23.699  7.874                                   
178 60 1 -0.8476  1.370 23.106 11.056                                   
179 60 2  0.4238  2.158 23.722 11.056                                   
180 60 2  0.4238  0.582 23.722 11.056                                   
181 61 1 -0.8476  1.825 23.549 13.917                                   
182 61 2  0.4238  2.613 24.165 13.917                                   
183 61 2  0.4238  1.037 24.165 13.917                                   
184 62 1 -0.8476  1.485 23.103 16.864                                   
185 62 2  0.4238  2.273 23.719 16.864                                   
186 62 2  0.4238  0.697 23.719 16.864                                   
187 63 1 -0.8476  1.515 23.307 20.295                                   
188 63 2  0.4238  2.303 23.923 20.295                                   
189 63 2  0.4238  0.727 23.923 20.295                                   
190 64 1 -0.8476  1.555 23.065 23.370                                   
191 64 2  0.4238  2.343 23.680 23.370                                   
192 64 2  0.4238  0.767 23.680 23.370                                   
193 65 1 -0.8476  4.567  1.322  1.356                                   
194 65 2  0.4238  5.355  1.937  1.356                                   
195 65 2  0.4238  3.779  1.937  1.356                                   
196 66 1 -0.8476  4.533  1.407  4.905                                   
197 66 2  0.4238  5.321  2.023  4.905                                   
198 66 2  0.4238  3.745  2.023  4.905                                   
199 67 1 -0.8476  4.834  1.318  7.488                                   
200 67 2  0.4238  5.622  1.933  7.488                                   
201 67 2  0.4238  4.046  1.933  7.488                                   
202 68 1 -0.8476  4.700  1.361 10.721                                   
203 68 2  0.4238  5.488  1.977 10.721                                   
204 68 2  0.4238  3.912  1.977 10.721                                   
205 69 1 -0.8476  4.390  1.250 14.111                                   
206 69 2  0.4238  5.178  1.865 14.111                                   
207 69 2  0.4238  3.602  1.865 14.111                                   
208 70 1 -0.8476  4.676  1.291 17.197                                   
209 70 2  0.4238  5.464  1.907 17.197                                   
210 70 2  0.4238  3.888  1.907 17.197                                   
211 71 1 -0.8476  4.730  1.375 20.134                                   
212 71 2  0.4238  5.518  1.991 20.134                                   
213 71 2  0.4238  3.942  1.991 20.134                                   
214 72 1 -0.8476  4.657  1.334 23.315                                   
215 72 2  0.4238  5.445  1.950 23.315                                   
216 72 2  0.4238  3.869  1.950 23.315                                   
217 73 1 -0.8476  4.782  4.354  1.328                                   
218 73 2  0.4238  5.570  4.970  1.328                                   
219 73 2  0.4238  3.994  4.970  1.328                                   
220 74 1 -0.8476  4.524  4.754  4.688                                   
221 74 2  0.4238  5.312  5.370  4.688                                   
222 74 2  0.4238  3.736  5.370  4.688                                   
223 75 1 -0.8476  4.570  4.463  7.815                                   
224 75 2  0.4238  5.358  5.078  7.815                                   
225 75 2  0.4238  3.782  5.078  7.815                                   
226 76 1 -0.8476  4.628  4.528 10.693                                   
227 76 2  0.4238  5.416  5.143 10.693                                   
228 76 2  0.4238  3.840  5.143 10.693                                   
229 77 1 -0.8476  4.897  4.684 14.070                                   
230 77 2  0.4238  5.685  5.300 14.070                                   
231 77 2  0.4238  4.109  5.300 14.070                                   
232 78 1 -0.8476  4.489  4.386 17.313                                   
233 78 2  0.4238  5.277  5.002 17.313                                   
234 78 2  0.4238  3.701  5.002 17.313                                   
235 79 1 -0.8476  4.397  4.570 20.394                                   
236 79 2  0.4238  5.185  5.186 20.394                                   
237 79 2  0.4238  3.609  5.186 20.394                                   
238 80 1 -0.8476  4.707  4.676 23.504                                   
239 80 2  0.4238  5.495  5.292 23.504                                   
240 80 2  0.4238  3.919  5.292 23.504                                   
241 81 1 -0.8476  4.700  8.003  1.290                                   
242 81 2  0.4238  5.488  8.619  1.290                                   
243 81 2  0.4238  3.912  8.619  1.290                                   
244 82 1 -0.8476  4.461  8.023  4.497                                   
245 82 2  0.4238  5.249  8.638  4.497                                   
246 82 2  0.4238  3.673  8.638  4.497                                   
247 83 1 -0.8476  4.662  7.466  7.969                                   
248 83 2  0.4238  5.450  8.081  7.969                                   
249 83 2  0.4238  3.874  8.081  7.969                                   
250 84 1 -0.8476  4.441  8.003 11.086                                   
251 84 2  0.4238  5.229  8.619 11.086                                   
252 84 2  0.4238  3.653  8.619 11.086                                   
253 85 1 -0.8476  4.915  8.031 14.277                                   
254 85 2  0.4238  5.703  8.646 14.277                                   
255 85 2  0.4238  4.127  8.646 14.277                                   
256 86 1 -0.8476  4.478  7.857 17.225                                   
257 86 2  0.4238  5.266  8.473 17.225                                   
258 86 2  0.4238  3.690  8.473 17.225                                   
259 87 1 -0.8476  4.639  7.544 19.961                                   
260 87 2  0.4238  5.427  8.159 19.961                                   
261 87 2  0.4238  3.851  8.159 19.961                                   
262 88 1 -0.8476  4.616  7.641 23.246                                   
263 88 2  0.4238  5.405  8.256 23.246                                   
264 88 2  0.4238  3.828  8.256 23.246                                   
265 89 1 -0.8476  4.792 10.890  1.391                                   
266 89 2  0.4238  5.580 11.505  1.391                                   
267 89 2  0.4238  4.004 11.505  1.391                                   
268 90 1 -0.8476  4.488 11.112  4.387                                   
269 90 2  0.4238  5.276 11.728  4.387                                   
270 90 2  0.4238  3.700 11.728  4.387                                   
271 91 1 -0.8476  4.388 10.679  7.836                                   
272 91 2  0.4238  5.176 11.295  7.836                                   
273 91 2  0.4238  3.600 11.295  7.836                                   
274 92 1 -0.8476  4.366 10.813 10.595                                   
275 92 2  0.4238  5.154 11.429 10.595                                   
276 92 2  0.4238  3.578 11.429 10.595                                   
277 93 1 -0.8476  4.864 10.651 13.745                                   
278 93 2  0.4238  5.652 11.266 13.745                                   
279 93 2  0.4238  4.076 11.266 13.745                                   
280 94 1 -0.8476  4.963 10.706 16.930                                   
281 94 2  0.4238  5.751 11.322 16.930                                   
282 94 2  0.4238  4.175 11.322 16.930                                   
283 95 1 -0.8476  4.825 10.793 20.324                                   
284 95 2  0.4238  5.613 11.408 20.324                                   
285 95 2  0.4238  4.037 11.408 20.324                                   
286 96 1 -0.8476  4.375 10.670 23.411                                   
287 96 2  0.4238  5.163 11.286 23.411                                   
288 96 2  0.4238  3.587 11.286 23.411                                   
289 97 1 -0.8476  4.725 14.125  1.509                                   
290 97 2  0.4238  5.513 14.741  1.509                                   
291 97 2  0.4238  3.937 14.741  1.509                                   
292 98 1 -0.8476  4.899 13.704  4.957                                   
293 98 2  0.4238  5.687 14.320  4.957                                   
294 98 2  0.4238  4.111 14.320  4.957                                   
295 99 1 -0.8476  4.398 14.145  8.008                                   
296 99 2  0.4238  5.186 14.760  8.008                                   
297 99 2  0.4238  3.610 14.760  8.008                                   
298 100 1 -0.8476  4.953 14.021 10.955                                  
299 100 2  0.4238  5.741 14.637 10.955                                  
300 100 2  0.4238  4.165 14.637 10.955                                  
301 101 1 -0.8476  4.405 14.029 14.104                                  
302 101 2  0.4238  5.193 14.644 14.104                                  
303 101 2  0.4238  3.617 14.644 14.104                                  
304 102 1 -0.8476  4.427 13.919 17.300                                  
305 102 2  0.4238  5.215 14.534 17.300                                  
306 102 2  0.4238  3.639 14.534 17.300                                  
307 103 1 -0.8476  4.789 13.741 19.990                                  
308 103 2  0.4238  5.577 14.356 19.990                                  
309 103 2  0.4238  4.001 14.356 19.990                                  
310 104 1 -0.8476  4.626 13.737 23.326                                  
311 104 2  0.4238  5.414 14.353 23.326                                  
312 104 2  0.4238  3.838 14.353 23.326                                  
313 105 1 -0.8476  4.699 17.234  1.499                                  
314 105 2  0.4238  5.487 17.850  1.499                                  
315 105 2  0.4238  3.911 17.850  1.499                                  
316 106 1 -0.8476  4.711 16.886  4.539                                  
317 106 2  0.4238  5.499 17.502  4.539                                  
318 106 2  0.4238  3.923 17.502  4.539                                  
319 107 1 -0.8476  4.958 17.003  8.013                                  
320 107 2  0.4238  5.746 17.619  8.013                                  
321 107 2  0.4238  4.169 17.619  8.013                                  
322 108 1 -0.8476  4.904 16.935 11.048                                  
323 108 2  0.4238  5.692 17.551 11.048                                  
324 108 2  0.4238  4.116 17.551 11.048                                  
325 109 1 -0.8476  4.595 17.209 14.045                                  
326 109 2  0.4238  5.383 17.825 14.045                                  
327 109 2  0.4238  3.807 17.825 14.045                                  
328 110 1 -0.8476  4.360 17.362 17.060                                  
329 110 2  0.4238  5.148 17.977 17.060                                  
330 110 2  0.4238  3.572 17.977 17.060                                  
331 111 1 -0.8476  4.363 17.306 20.203                                  
332 111 2  0.4238  5.151 17.922 20.203                                  
333 111 2  0.4238  3.575 17.922 20.203                                  
334 112 1 -0.8476  4.764 17.044 23.522                                  
335 112 2  0.4238  5.552 17.660 23.522                                  
336 112 2  0.4238  3.976 17.660 23.522                                  
337 113 1 -0.8476  4.365 20.331  1.262                                  
338 113 2  0.4238  5.153 20.947  1.262                                  
339 113 2  0.4238  3.577 20.947  1.262                                  
340 114 1 -0.8476  4.964 20.217  4.932                                  
341 114 2  0.4238  5.752 20.833  4.932                                  
342 114 2  0.4238  4.176 20.833  4.932                                  
343 115 1 -0.8476  4.468 20.136  7.542                                  
344 115 2  0.4238  5.256 20.751  7.542                                  
345 115 2  0.4238  3.680 20.751  7.542                                  
346 116 1 -0.8476  4.845 20.312 10.821                                  
347 116 2  0.4238  5.633 20.928 10.821                                  
348 116 2  0.4238  4.057 20.928 10.821                                  
349 117 1 -0.8476  4.523 20.256 14.123                                  
350 117 2  0.4238  5.311 20.872 14.123                                  
351 117 2  0.4238  3.735 20.872 14.123                                  
352 118 1 -0.8476  4.808 20.323 17.212                                  
353 118 2  0.4238  5.596 20.939 17.212                                  
354 118 2  0.4238  4.020 20.939 17.212                                  
355 119 1 -0.8476  4.520 20.040 20.013                                  
356 119 2  0.4238  5.308 20.655 20.013                                  
357 119 2  0.4238  3.732 20.655 20.013                                  
358 120 1 -0.8476  4.420 20.431 23.064                                  
359 120 2  0.4238  5.208 21.047 23.064                                  
360 120 2  0.4238  3.632 21.047 23.064                                  
361 121 1 -0.8476  4.778 23.369  1.676                                  
362 121 2  0.4238  5.566 23.984  1.676                                  
363 121 2  0.4238  3.990 23.984  1.676                                  
364 122 1 -0.8476  4.434 23.237  4.511                                  
365 122 2  0.4238  5.222 23.853  4.511                                  
366 122 2  0.4238  3.646 23.853  4.511                                  
367 123 1 -0.8476  4.925 23.504  8.056                                  
368 123 2  0.4238  5.713 24.120  8.056                                  
369 123 2  0.4238  4.137 24.120  8.056                                  
370 124 1 -0.8476  4.814 23.460 10.572                                  
371 124 2  0.4238  5.602 24.076 10.572                                  
372 124 2  0.4238  4.025 24.076 10.572                                  
373 125 1 -0.8476  4.506 23.485 13.942                                  
374 125 2  0.4238  5.294 24.101 13.942                                  
375 125 2  0.4238  3.718 24.101 13.942                                  
376 126 1 -0.8476  4.650 23.516 17.028                                  
377 126 2  0.4238  5.438 24.132 17.028                                  
378 126 2  0.4238  3.862 24.132 17.028                                  
379 127 1 -0.8476  4.425 23.250 20.100                                  
380 127 2  0.4238  5.213 23.866 20.100                                  
381 127 2  0.4238  3.637 23.866 20.100                                  
382 128 1 -0.8476  4.920 23.183 23.588                                  
383 128 2  0.4238  5.708 23.799 23.588                                  
384 128 2  0.4238  4.132 23.799 23.588                                  
385 129 1 -0.8476  8.042  1.639  1.574                                  
386 129 2  0.4238  8.830  2.255  1.574                                  
387 129 2  0.4238  7.254  2.255  1.574                                  
388 130 1 -0.8476  8.067  1.476  4.461                                  
389 130 2  0.4238  8.855  2.092  4.461                                  
390 130 2  0.4238  7.279  2.092  4.461                                  
391 131 1 -0.8476  7.743  1.293  7.993                                  
392 131 2  0.4238  8.531  1.909  7.993                                  
393 131 2  0.4238  6.955  1.909  7.993                                  
394 132 1 -0.8476  7.862  1.244 10.795                                  
395 132 2  0.4238  8.650  1.860 10.795                                  
396 132 2  0.4238  7.074  1.860 10.795                                  
397 133 1 -0.8476  7.795  1.330 14.259                                  
398 133 2  0.4238  8.583  1.946 14.259                                  
399 133 2  0.4238  7.007  1.946 14.259                                  
400 134 1 -0.8476  7.531  1.305 17.186                                  
401 134 2  0.4238  8.319  1.921 17.186                                  
402 134 2  0.4238  6.743  1.921 17.186                                  
403 135 1 -0.8476  7.758  1.810 20.213                                  
404 135 2  0.4238  8.546  2.426 20.213                                  
405 135 2  0.4238  6.970  2.426 20.213                                  
406 136 1 -0.8476  7.794  1.718 23.289                                  
407 136 2  0.4238  8.582  2.333 23.289                                  