LAMMPS

   27 atoms
    0 bonds
    0 angles
    0 dihedrals
    0 impropers

    1 atom types velocities
    0 bond types
    0 angle types
    0 dihedral types
    0 improper types

0.0000 3.1670 xlo xhi
0.0000 3.1670 ylo yhi
0.0000 3.1670 zlo zhi

Atoms

1 1 0.528 0.528 0.528
2 1 0.528 0.528 1.584
3 1 0.528 0.528 2.639
4 1 0.528 1.584 0.528
5 1 0.528 1.584 1.584
6 1 0.528 1.584 2.639
7 1 0.528 2.639 0.528
8 1 0.528 2.639 1.584
9 1 0.528 2.639 2.639
10 1 1.584 0.528 0.528
11 1 1.584 0.528 1.584
12 1 1.584 0.528 2.639
13 1 1.584 1.584 0.528
14 1 1.584 1.584 1.584
15 1 1.584 1.584 2.639
16 1 1.584 2.639 0.528
17 1 1.584 2.639 1.584
18 1 1.584 2.639 2.639
19 1 2.639 0.528 0.528
20 1 2.639 0.528 1.584
21 1 2.639 0.528 2.639
22 1 2.639 1.584 0.528
23 1 2.639 1.584 1.584
24 1 2.639 1.584 2.639
25 1 2.639 2.639 0.528
26 1 2.639 2.639 1.584
27 1 2.639 2.639 2.639

Velocities

1 0.082 -0.232 0.466
2 0.215 -0.356 0.253
3 -0.692 -1.525 -0.378
4 0.047 -1.141 -1.500
5 -0.215 -0.138 0.933
6 2.249 0.538 -0.196
7 0.434 1.359 -1.030
8 -0.494 1.090 0.420
9 -0.586 -0.515 -0.873
10 0.310 -0.855 -1.087
11 -1.374 0.560 0.382
12 -0.454 -0.696 -0.745
13 -0.456 0.023 -0.477
14 -0.817 0.696 0.683
15 -0.593 -0.407 2.116
16 1.015 0.245 -0.904
17 0.398 2.801 0.354
18 0.708 -0.183 1.978
19 -0.755 -0.248 0.105
20 1.838 -0.505 -0.761
21 -0.281 0.695 -0.701
22 -0.957 -1.058 0.034
23 0.546 1.599 0.645
24 1.102 -1.313 1.050
25 -0.210 -0.856 -2.297
26 0.168 -0.104 0.905
27 -1.229 0.529 0.625
